SMILES,pKa,Dissociable_Atoms,Functional_Group,Name,Equilibrium,Ionic,Temperature,Dissociable_Atoms_Ordered,Functional_Group_Ordered,Dissociation_Order,Dissociating_Group,Functional_Group_pKa_Ranges
Cc1cccnc1,5.8,5,pyridine_nitrogen,3-Methylpyridine (3-Picoline),[HL]/[L][H],0.5,25.0,5,pyridine_nitrogen,5(pyridine_nitrogen),Unknown,pyridine_nitrogen(Unknown)
Cc1cccnc1,5.68,5,pyridine_nitrogen,3-Methylpyridine (3-Picoline),[HL]/[L][H],0.0,25.0,5,pyridine_nitrogen,5(pyridine_nitrogen),Unknown,pyridine_nitrogen(Unknown)
CCc1cccnc1,5.83,6,pyridine_nitrogen,3-Ethylpyridine,[HL]/[L][H],0.5,25.0,6,pyridine_nitrogen,6(pyridine_nitrogen),Unknown,pyridine_nitrogen(Unknown)
CCc1cccnc1,5.72,6,pyridine_nitrogen,3-Ethylpyridine,[HL]/[L][H],0.0,25.0,6,pyridine_nitrogen,6(pyridine_nitrogen),Unknown,pyridine_nitrogen(Unknown)
Cc1ccncc1,6.05,4,pyridine_nitrogen,4-Methylpyridine (4-Picoline),[HL]/[L][H],0.1,25.0,4,pyridine_nitrogen,4(pyridine_nitrogen),Unknown,pyridine_nitrogen(Unknown)
Cc1ccncc1,6.1,4,pyridine_nitrogen,4-Methylpyridine (4-Picoline),[HL]/[L][H],0.5,25.0,4,pyridine_nitrogen,4(pyridine_nitrogen),Unknown,pyridine_nitrogen(Unknown)
Cc1ccncc1,6.19,4,pyridine_nitrogen,4-Methylpyridine (4-Picoline),[HL]/[L][H],1.0,25.0,4,pyridine_nitrogen,4(pyridine_nitrogen),Unknown,pyridine_nitrogen(Unknown)
Cc1ccncc1,6.0,4,pyridine_nitrogen,4-Methylpyridine (4-Picoline),[HL]/[L][H],0.0,25.0,4,pyridine_nitrogen,4(pyridine_nitrogen),Unknown,pyridine_nitrogen(Unknown)
CCc1ccncc1,6.06,5,pyridine_nitrogen,4-Ethylpyridine,[HL]/[L][H],0.1,25.0,5,pyridine_nitrogen,5(pyridine_nitrogen),Unknown,pyridine_nitrogen(Unknown)
CCc1ccncc1,6.33,5,pyridine_nitrogen,4-Ethylpyridine,[HL]/[L][H],0.5,25.0,5,pyridine_nitrogen,5(pyridine_nitrogen),Unknown,pyridine_nitrogen(Unknown)
CCc1ccncc1,6.14,5,pyridine_nitrogen,4-Ethylpyridine,[HL]/[L][H],1.0,25.0,5,pyridine_nitrogen,5(pyridine_nitrogen),Unknown,pyridine_nitrogen(Unknown)
CCc1ccncc1,6.02,5,pyridine_nitrogen,4-Ethylpyridine,[HL]/[L][H],0.0,25.0,5,pyridine_nitrogen,5(pyridine_nitrogen),Unknown,pyridine_nitrogen(Unknown)
CC(C)(C)c1ccncc1,6.2,7,pyridine_nitrogen,4-(2-Methyl-2-propyl)pyridine,[HL]/[L][H],0.5,25.0,7,pyridine_nitrogen,7(pyridine_nitrogen),Unknown,pyridine_nitrogen(Unknown)
CC(C)(C)c1ccncc1,5.99,7,pyridine_nitrogen,4-(2-Methyl-2-propyl)pyridine,[HL]/[L][H],0.0,25.0,7,pyridine_nitrogen,7(pyridine_nitrogen),Unknown,pyridine_nitrogen(Unknown)
Cc1cccnc1C,6.75,5,pyridine_nitrogen,"2,3-Dimethylpyridine (2,3-Lutidine)",[HL]/[L][H],0.5,25.0,5,pyridine_nitrogen,5(pyridine_nitrogen),Unknown,pyridine_nitrogen(Unknown)
Cc1cccnc1C,6.58,5,pyridine_nitrogen,"2,3-Dimethylpyridine (2,3-Lutidine)",[HL]/[L][H],0.0,25.0,5,pyridine_nitrogen,5(pyridine_nitrogen),Unknown,pyridine_nitrogen(Unknown)
Cc1ccnc(C)c1,6.67,3,pyridine_nitrogen,"2,4-Dimethylpyridine (2,4-Lutidine)",[HL]/[L][H],0.1,25.0,3,pyridine_nitrogen,3(pyridine_nitrogen),Unknown,pyridine_nitrogen(Unknown)
Cc1ccnc(C)c1,6.83,3,pyridine_nitrogen,"2,4-Dimethylpyridine (2,4-Lutidine)",[HL]/[L][H],0.5,25.0,3,pyridine_nitrogen,3(pyridine_nitrogen),Unknown,pyridine_nitrogen(Unknown)
Cc1ccnc(C)c1,6.63,3,pyridine_nitrogen,"2,4-Dimethylpyridine (2,4-Lutidine)",[HL]/[L][H],0.0,25.0,3,pyridine_nitrogen,3(pyridine_nitrogen),Unknown,pyridine_nitrogen(Unknown)
Cc1ccc(C)nc1,6.58,5,pyridine_nitrogen,"2,5-Dimethylpyridine (2,5-Lutidine)",[HL]/[L][H],0.5,25.0,5,pyridine_nitrogen,5(pyridine_nitrogen),Unknown,pyridine_nitrogen(Unknown)
Cc1ccc(C)nc1,6.42,5,pyridine_nitrogen,"2,5-Dimethylpyridine (2,5-Lutidine)",[HL]/[L][H],0.0,25.0,5,pyridine_nitrogen,5(pyridine_nitrogen),Unknown,pyridine_nitrogen(Unknown)
Cc1cccc(C)n1,6.92,10,ring_nitrogen,"2,6-Dimethylpyridine (2,6-Lutidine)",[HL]/[L][H],0.5,25.0,10,ring_nitrogen,10(ring_nitrogen),Unknown,ring_nitrogen(Unknown)
Cc1cccc(C)n1,6.73,10,ring_nitrogen,"2,6-Dimethylpyridine (2,6-Lutidine)",[HL]/[L][H],0.0,25.0,10,ring_nitrogen,10(ring_nitrogen),Unknown,ring_nitrogen(Unknown)
Cc1ccncc1C,6.57,4,pyridine_nitrogen,"3,4-Dimethylpyridine (3,4-Lutidine)",[HL]/[L][H],0.5,25.0,4,pyridine_nitrogen,4(pyridine_nitrogen),Unknown,pyridine_nitrogen(Unknown)
Cc1ccncc1C,6.47,4,pyridine_nitrogen,"3,4-Dimethylpyridine (3,4-Lutidine)",[HL]/[L][H],0.0,25.0,4,pyridine_nitrogen,4(pyridine_nitrogen),Unknown,pyridine_nitrogen(Unknown)
Cc1cncc(C)c1,6.24,2,pyridine_nitrogen,"3,5-Dimethylpyridine (3,5-Lutidine)",[HL]/[L][H],0.5,25.0,2,pyridine_nitrogen,2(pyridine_nitrogen),Unknown,pyridine_nitrogen(Unknown)
Cc1cncc(C)c1,6.39,2,pyridine_nitrogen,"3,5-Dimethylpyridine (3,5-Lutidine)",[HL]/[L][H],1.0,25.0,2,pyridine_nitrogen,2(pyridine_nitrogen),Unknown,pyridine_nitrogen(Unknown)
Cc1cncc(C)c1,6.13,2,pyridine_nitrogen,"3,5-Dimethylpyridine (3,5-Lutidine)",[HL]/[L][H],0.0,25.0,2,pyridine_nitrogen,2(pyridine_nitrogen),Unknown,pyridine_nitrogen(Unknown)
CCc1ccc(C)nc1,6.43,6,pyridine_nitrogen,5-Ethyl-2-methylpyridine,[HL]/[L][H],0.1,25.0,6,pyridine_nitrogen,6(pyridine_nitrogen),Unknown,pyridine_nitrogen(Unknown)
CCc1cnccc1C,6.35,3,pyridine_nitrogen,3-Ethyl-4-methylpyridine,[HL]/[L][H],1.0,25.0,3,pyridine_nitrogen,3(pyridine_nitrogen),Unknown,pyridine_nitrogen(Unknown)
Cc1ccc(C)c(C)n1,7.44,13,ring_nitrogen,"2,3,6-Trimethylpyridine (2,3,6-Collidine)",[HL]/[L][H],0.5,25.0,13,ring_nitrogen,13(ring_nitrogen),Unknown,ring_nitrogen(Unknown)
Cc1cc(C)nc(C)c1,7.22,4,pyridine_nitrogen,"2,4,6-Trimethylpyridine (2,4,6-Collidine)",[HL]/[L][H],0.1,25.0,4,pyridine_nitrogen,4(pyridine_nitrogen),Unknown,pyridine_nitrogen(Unknown)
C=Cc1ccccn1,5.04,7,pyridine_nitrogen,2-Vinylpyridine,[HL]/[L][H],0.1,25.0,7,pyridine_nitrogen,7(pyridine_nitrogen),Unknown,pyridine_nitrogen(Unknown)
C=Cc1ccccn1,4.98,7,pyridine_nitrogen,2-Vinylpyridine,[HL]/[L][H],0.0,25.0,7,pyridine_nitrogen,7(pyridine_nitrogen),Unknown,pyridine_nitrogen(Unknown)
C=CCc1ccccn1,5.34,8,pyridine_nitrogen,2-Prop-2-enylpyridine (2-Allylpyridine),[HL]/[L][H],0.1,25.0,8,pyridine_nitrogen,8(pyridine_nitrogen),Unknown,pyridine_nitrogen(Unknown)
C=CCCc1ccccn1,5.88,9,pyridine_nitrogen,2-But-3-enylpyridine,[HL]/[L][H],0.1,25.0,9,pyridine_nitrogen,9(pyridine_nitrogen),Unknown,pyridine_nitrogen(Unknown)
C=CCCCc1ccccn1,5.97,10,pyridine_nitrogen,2-Pent-4-enylpyridine,[HL]/[L][H],0.1,25.0,10,pyridine_nitrogen,10(pyridine_nitrogen),Unknown,pyridine_nitrogen(Unknown)
C=Cc1ccncc1,5.4,5,pyridine_nitrogen,4-Vinylpyridine,[HL]/[L][H],0.1,25.0,5,pyridine_nitrogen,5(pyridine_nitrogen),Unknown,pyridine_nitrogen(Unknown)
c1ccc(cc1)c2ccccn2,4.64,11,pyridine_nitrogen,2-Phenylpyridine,[HL]/[L][H],0.1,25.0,11,pyridine_nitrogen,11(pyridine_nitrogen),Unknown,pyridine_nitrogen(Unknown)
c1ccc(cc1)c2cccnc2,4.81,9,pyridine_nitrogen,3-Phenylpyridine,[HL]/[L][H],0.1,25.0,9,pyridine_nitrogen,9(pyridine_nitrogen),Unknown,pyridine_nitrogen(Unknown)
c1ccc(cc1)c2ccncc2,5.38,8,pyridine_nitrogen,4-Phenylpyridine,[HL]/[L][H],0.1,25.0,8,pyridine_nitrogen,8(pyridine_nitrogen),Unknown,pyridine_nitrogen(Unknown)
C(c1ccccc1)c2ccccn2,5.12,12,pyridine_nitrogen,2-Benzylpyridine,[HL]/[L][H],0.1,25.0,12,pyridine_nitrogen,12(pyridine_nitrogen),Unknown,pyridine_nitrogen(Unknown)
C(c1ccccc1)c2ccccn2,5.13,12,pyridine_nitrogen,2-Benzylpyridine,[HL]/[L][H],0.0,25.0,12,pyridine_nitrogen,12(pyridine_nitrogen),Unknown,pyridine_nitrogen(Unknown)
N#Cc1cccnc1,1.64,6,pyridine_nitrogen,3-Cyanopyridine,[HL]/[L][H],0.1,25.0,6,pyridine_nitrogen,6(pyridine_nitrogen),Unknown,pyridine_nitrogen(Unknown)
N#Cc1cccnc1,1.17,6,pyridine_nitrogen,3-Cyanopyridine,[HL]/[L][H],0.0,25.0,6,pyridine_nitrogen,6(pyridine_nitrogen),Unknown,pyridine_nitrogen(Unknown)
N#CCc1cccnc1,4.06,7,pyridine_nitrogen,3-(Cyanomethyl)pyridine,[HL]/[L][H],0.5,25.0,7,pyridine_nitrogen,7(pyridine_nitrogen),Unknown,pyridine_nitrogen(Unknown)
N#Cc1ccncc1,1.48,5,pyridine_nitrogen,4-Cyanopyridine,[HL]/[L][H],0.0,25.0,5,pyridine_nitrogen,5(pyridine_nitrogen),Unknown,pyridine_nitrogen(Unknown)
Cc1cc(cc(C)n1)C#N,3.68,16,nitrile,"4-Cyano-2,6-dimethylpyridine",[HL]/[L][H],0.5,25.0,16,nitrile,16(nitrile),Unknown,nitrile(Unknown)
[O-][N+](=O)c1ccccn1,2.06,8,pyridine_nitrogen,2-Nitropyridine,[HL]/[L][H],0.0,25.0,8,pyridine_nitrogen,8(pyridine_nitrogen),Unknown,pyridine_nitrogen(Unknown)
[O-][N+](=O)c1cccnc1,0.8,7,pyridine_nitrogen,3-Nitropyridine,[HL]/[L][H],0.0,25.0,7,pyridine_nitrogen,7(pyridine_nitrogen),Unknown,pyridine_nitrogen(Unknown)
[O-][N+](=O)c1ccncc1,1.23,6,pyridine_nitrogen,4-Nitropyridine,[HL]/[L][H],0.0,25.0,6,pyridine_nitrogen,6(pyridine_nitrogen),Unknown,pyridine_nitrogen(Unknown)
Cc1ccc(c(C)n1)[N+]([O-])=O,2.87,14,n_oxide,"2,6-Dimethyl-3-nitropyridine",[HL]/[L][H],0.5,25.0,14,n_oxide,14(n_oxide),Unknown,n_oxide(Unknown)
Cc1cc(cc(C)n1)[N+]([O-])=O,3.15,14,n_oxide,"2,6-Dimethyl-4-nitropyridine",[HL]/[L][H],0.5,25.0,14,n_oxide,14(n_oxide),Unknown,n_oxide(Unknown)
Cc1cc(C)c(c(C)n1)[N+]([O-])=O,3.47,8,pyridine_nitrogen,"2,4,6-Trimethyl-3-nitropyridine",[HL]/[L][H],0.5,25.0,8,pyridine_nitrogen,8(pyridine_nitrogen),Unknown,pyridine_nitrogen(Unknown)
Brc1ccccn1,0.7,6,pyridine_nitrogen,2-Bromopyridine,[HL]/[L][H],0.0,25.0,6,pyridine_nitrogen,6(pyridine_nitrogen),Unknown,pyridine_nitrogen(Unknown)
Brc1cccnc1,3.08,5,pyridine_nitrogen,3-Bromopyridine,[HL]/[L][H],0.5,25.0,5,pyridine_nitrogen,5(pyridine_nitrogen),Unknown,pyridine_nitrogen(Unknown)
Brc1cccnc1,2.87,5,pyridine_nitrogen,3-Bromopyridine,[HL]/[L][H],0.0,25.0,5,pyridine_nitrogen,5(pyridine_nitrogen),Unknown,pyridine_nitrogen(Unknown)
Brc1ccncc1,3.68,4,pyridine_nitrogen,4-Bromopyridine,[HL]/[L][H],0.0,25.0,4,pyridine_nitrogen,4(pyridine_nitrogen),Unknown,pyridine_nitrogen(Unknown)
Cc1cc(Br)cc(C)n1,5.41,14,ring_nitrogen,"4-Bromo-2,6-dimethylpyridine",[HL]/[L][H],0.5,25.0,14,ring_nitrogen,14(ring_nitrogen),Unknown,ring_nitrogen(Unknown)
Ic1cccnc1,3.46,5,pyridine_nitrogen,3-Iodopyridine,[HL]/[L][H],0.5,25.0,5,pyridine_nitrogen,5(pyridine_nitrogen),Unknown,pyridine_nitrogen(Unknown)
Ic1cccnc1,3.25,5,pyridine_nitrogen,3-Iodopyridine,[HL]/[L][H],0.0,25.0,5,pyridine_nitrogen,5(pyridine_nitrogen),Unknown,pyridine_nitrogen(Unknown)
Cc1ccc(c(C)n1)[S](O)(=O)=O,4.8,11,ring_nitrogen,"2,6-Dimethylpyridine-3-sulfonic acid",[HL]/[L][H],0.5,25.0,11,ring_nitrogen,11(ring_nitrogen),Unknown,ring_nitrogen(Unknown)
O=C1NC=CC=C1,9.5,3:1,amine_secondary:carbonyl,"2-Hydroxypyridine (1,2-Dihydropyridin-2-one)",[HL]/[L][H],1.0,25.0,3:1,amine_secondary:carbonyl,3(amine_secondary) > 1(carbonyl),amine_secondary,amine_secondary(9.5~11.5); carbonyl(Unknown)
O=C1NC=CC=C1,1.25,3:1,amine_secondary:carbonyl,"2-Hydroxypyridine (1,2-Dihydropyridin-2-one)",[H₂L]/[HL][H],0.0,25.0,3:1,amine_secondary:carbonyl,3(amine_secondary) > 1(carbonyl),amine_secondary,amine_secondary(9.5~11.5); carbonyl(Unknown)
Oc1cccc[n+]1[O-],5.81,0,phenol,2-Hydroxypyridine-N-oxide,[HL]/[L][H],0.1,25.0,0,phenol,0(phenol),phenol,phenol(8.0~11.0)
Oc1cccnc1,8.5,5,pyridine_nitrogen,3-Hydroxypyridine,[HL]/[L][H],0.1,25.0,5,pyridine_nitrogen,5(pyridine_nitrogen),Unknown,pyridine_nitrogen(Unknown)
Oc1cccnc1,8.75,5,pyridine_nitrogen,3-Hydroxypyridine,[HL]/[L][H],0.0,25.0,5,pyridine_nitrogen,5(pyridine_nitrogen),Unknown,pyridine_nitrogen(Unknown)
Oc1cccnc1,4.89,5,pyridine_nitrogen,3-Hydroxypyridine,[H₂L]/[HL][H],0.1,25.0,5,pyridine_nitrogen,5(pyridine_nitrogen),Unknown,pyridine_nitrogen(Unknown)
Oc1cccnc1,5.0,5,pyridine_nitrogen,3-Hydroxypyridine,[H₂L]/[HL][H],0.5,25.0,5,pyridine_nitrogen,5(pyridine_nitrogen),Unknown,pyridine_nitrogen(Unknown)
Oc1cccnc1,5.09,5,pyridine_nitrogen,3-Hydroxypyridine,[H₂L]/[HL][H],1.0,25.0,5,pyridine_nitrogen,5(pyridine_nitrogen),Unknown,pyridine_nitrogen(Unknown)
Oc1cccnc1,4.83,5,pyridine_nitrogen,3-Hydroxypyridine,[H₂L]/[HL][H],0.0,25.0,5,pyridine_nitrogen,5(pyridine_nitrogen),Unknown,pyridine_nitrogen(Unknown)
O=C1C=CNC=C1,3.52,5:1,amine_secondary:carbonyl,"4-Hydroxypyridine (1,4-Dihydropyridin-4-one)",[H₂L]/[HL][H],1.0,25.0,5:1,amine_secondary:carbonyl,5(amine_secondary) > 1(carbonyl),amine_secondary,amine_secondary(9.5~11.5); carbonyl(Unknown)
O=C1C=CNC=C1,3.23,5:1,amine_secondary:carbonyl,"4-Hydroxypyridine (1,4-Dihydropyridin-4-one)",[H₂L]/[HL][H],0.0,25.0,5:1,amine_secondary:carbonyl,5(amine_secondary) > 1(carbonyl),amine_secondary,amine_secondary(9.5~11.5); carbonyl(Unknown)
ON1C=CC=CC1=O,5.86,1:0,tertiary_amine:hydroxyl_group,"1-Hydroxy-1,2-dihydropyridin-2-one",[HL]/[L][H],0.1,25.0,1:0,tertiary_amine:hydroxyl_group,1(tertiary_amine) > 0(hydroxyl_group),Unknown,tertiary_amine(Unknown); hydroxyl_group(Unknown)
ON1C=CC=CC1=O,1.2,1:0,tertiary_amine:hydroxyl_group,"1-Hydroxy-1,2-dihydropyridin-2-one",[H₂L]/[HL][H],0.1,25.0,1:0,tertiary_amine:hydroxyl_group,1(tertiary_amine) > 0(hydroxyl_group),Unknown,tertiary_amine(Unknown); hydroxyl_group(Unknown)
CN1C=CC=C(O)C1=O,8.89,6,phenol,"1-Methyl-3-hydroxy-1,2-dihydropyridin-2-one",[HL]/[L][H],0.1,25.0,6,phenol,6(phenol),phenol,phenol(8.0~11.0)
CCCCN1C=CC=C(O)C1=O,9.06,9,phenol,"1-Butyl-2,3-dihydroxypyridine (1-Butyl-3-hydroxy-1,2-dihydropyridin-2-one)",[HL]/[L][H],0.1,25.0,9,phenol,9(phenol),phenol,phenol(8.0~11.0)
CC1=C(O)C(=O)C=CN1,9.8,3:8,phenol:amine_secondary,"2-Methyl-3,4-dihydroxypyridine (2-Methyl-3-hydroxy-1,4-dihydropyridin-4-one)",[HL]/[L][H],0.1,25.0,3:8,phenol:amine_secondary,3(phenol) > 8(amine_secondary),phenol,phenol(8.0~11.0); amine_secondary(9.5~11.5)
CC1=C(O)C(=O)C=CN1,9.58,3:8,phenol:amine_secondary,"2-Methyl-3,4-dihydroxypyridine (2-Methyl-3-hydroxy-1,4-dihydropyridin-4-one)",[HL]/[L][H],0.5,25.0,3:8,phenol:amine_secondary,3(phenol) > 8(amine_secondary),phenol,phenol(8.0~11.0); amine_secondary(9.5~11.5)
CC1=C(O)C(=O)C=CN1,10.1,3:8,phenol:amine_secondary,"2-Methyl-3,4-dihydroxypyridine (2-Methyl-3-hydroxy-1,4-dihydropyridin-4-one)",[HL]/[L][H],0.0,25.0,3:8,phenol:amine_secondary,3(phenol) > 8(amine_secondary),amine_secondary,phenol(8.0~11.0); amine_secondary(9.5~11.5)
CC1=C(O)C(=O)C=CN1,3.65,3:8,phenol:amine_secondary,"2-Methyl-3,4-dihydroxypyridine (2-Methyl-3-hydroxy-1,4-dihydropyridin-4-one)",[H₂L]/[HL][H],0.1,25.0,3:8,phenol:amine_secondary,3(phenol) > 8(amine_secondary),phenol,phenol(8.0~11.0); amine_secondary(9.5~11.5)
CC1=C(O)C(=O)C=CN1,3.74,3:8,phenol:amine_secondary,"2-Methyl-3,4-dihydroxypyridine (2-Methyl-3-hydroxy-1,4-dihydropyridin-4-one)",[H₂L]/[HL][H],0.5,25.0,3:8,phenol:amine_secondary,3(phenol) > 8(amine_secondary),phenol,phenol(8.0~11.0); amine_secondary(9.5~11.5)
CC1=C(O)C(=O)C=CN1,3.62,3:8,phenol:amine_secondary,"2-Methyl-3,4-dihydroxypyridine (2-Methyl-3-hydroxy-1,4-dihydropyridin-4-one)",[H₂L]/[HL][H],0.0,25.0,3:8,phenol:amine_secondary,3(phenol) > 8(amine_secondary),phenol,phenol(8.0~11.0); amine_secondary(9.5~11.5)
CN1C=CC(=O)C(=C1C)O,9.81,1:8,tertiary_amine:hydroxyl_group,"1,2-Dimethyl-3,4-dihydroxypyridine (1,2-Dimethyl-3-hydroxy-1,4-dihydropyridin-4-one)",[HL]/[L][H],0.1,25.0,1:8,tertiary_amine:hydroxyl_group,1(tertiary_amine) > 8(hydroxyl_group),Unknown,tertiary_amine(Unknown); hydroxyl_group(Unknown)
CN1C=CC(=O)C(=C1C)O,9.64,1:8,tertiary_amine:hydroxyl_group,"1,2-Dimethyl-3,4-dihydroxypyridine (1,2-Dimethyl-3-hydroxy-1,4-dihydropyridin-4-one)",[HL]/[L][H],0.5,25.0,1:8,tertiary_amine:hydroxyl_group,1(tertiary_amine) > 8(hydroxyl_group),Unknown,tertiary_amine(Unknown); hydroxyl_group(Unknown)
CN1C=CC(=O)C(=C1C)O,10.16,1:8,tertiary_amine:hydroxyl_group,"1,2-Dimethyl-3,4-dihydroxypyridine (1,2-Dimethyl-3-hydroxy-1,4-dihydropyridin-4-one)",[HL]/[L][H],0.0,25.0,1:8,tertiary_amine:hydroxyl_group,1(tertiary_amine) > 8(hydroxyl_group),Unknown,tertiary_amine(Unknown); hydroxyl_group(Unknown)
CN1C=CC(=O)C(=C1C)O,3.66,1:8,tertiary_amine:hydroxyl_group,"1,2-Dimethyl-3,4-dihydroxypyridine (1,2-Dimethyl-3-hydroxy-1,4-dihydropyridin-4-one)",[H₂L]/[HL][H],0.1,25.0,1:8,tertiary_amine:hydroxyl_group,1(tertiary_amine) > 8(hydroxyl_group),Unknown,tertiary_amine(Unknown); hydroxyl_group(Unknown)
CN1C=CC(=O)C(=C1C)O,3.73,1:8,tertiary_amine:hydroxyl_group,"1,2-Dimethyl-3,4-dihydroxypyridine (1,2-Dimethyl-3-hydroxy-1,4-dihydropyridin-4-one)",[H₂L]/[HL][H],0.5,25.0,1:8,tertiary_amine:hydroxyl_group,1(tertiary_amine) > 8(hydroxyl_group),Unknown,tertiary_amine(Unknown); hydroxyl_group(Unknown)
CN1C=CC(=O)C(=C1C)O,3.69,1:8,tertiary_amine:hydroxyl_group,"1,2-Dimethyl-3,4-dihydroxypyridine (1,2-Dimethyl-3-hydroxy-1,4-dihydropyridin-4-one)",[H₂L]/[HL][H],0.0,25.0,1:8,tertiary_amine:hydroxyl_group,1(tertiary_amine) > 8(hydroxyl_group),Unknown,tertiary_amine(Unknown); hydroxyl_group(Unknown)
CCN1C=CC(=O)C(=C1CC)O,9.93,2:11,tertiary_amine:hydroxyl_group,"1,2-Diethyl-3,4-dihydroxypyridine (1,2-Diethyl-3-hydroxy-1,4-dihydropyridin-4-one)",[HL]/[L][H],0.1,25.0,2:11,tertiary_amine:hydroxyl_group,2(tertiary_amine) > 11(hydroxyl_group),Unknown,tertiary_amine(Unknown); hydroxyl_group(Unknown)
CCN1C=CC(=O)C(=C1CC)O,3.81,2:11,tertiary_amine:hydroxyl_group,"1,2-Diethyl-3,4-dihydroxypyridine (1,2-Diethyl-3-hydroxy-1,4-dihydropyridin-4-one)",[H₂L]/[HL][H],0.1,25.0,2:11,tertiary_amine:hydroxyl_group,2(tertiary_amine) > 11(hydroxyl_group),Unknown,tertiary_amine(Unknown); hydroxyl_group(Unknown)
CCN1C=CC(=O)C(=C1C)O,9.81,2:9,tertiary_amine:hydroxyl_group,"1-Ethyl-2-methyl-3,4-dihydroxypyridine (1-Ethyl-2-methyl-3-hydroxy-1,4-dihydropyridin-4-one)",[HL]/[L][H],0.1,25.0,2:9,tertiary_amine:hydroxyl_group,2(tertiary_amine) > 9(hydroxyl_group),Unknown,tertiary_amine(Unknown); hydroxyl_group(Unknown)
CCN1C=CC(=O)C(=C1C)O,3.64,2:9,tertiary_amine:hydroxyl_group,"1-Ethyl-2-methyl-3,4-dihydroxypyridine (1-Ethyl-2-methyl-3-hydroxy-1,4-dihydropyridin-4-one)",[H₂L]/[HL][H],0.1,25.0,2:9,tertiary_amine:hydroxyl_group,2(tertiary_amine) > 9(hydroxyl_group),Unknown,tertiary_amine(Unknown); hydroxyl_group(Unknown)
CCCCCCN1C=CC(=O)C(=C1C)O,9.92,6:13,tertiary_amine:hydroxyl_group,"1-Hexyl-2-methyl-3,4-dihydroxypyridine (1-Hexyl-2-methyl-3-hydroxy-1,4-dihydropyridin-4-one)",[HL]/[L][H],0.1,25.0,6:13,tertiary_amine:hydroxyl_group,6(tertiary_amine) > 13(hydroxyl_group),Unknown,tertiary_amine(Unknown); hydroxyl_group(Unknown)
CCCCCCN1C=CC(=O)C(=C1C)O,3.59,6:13,tertiary_amine:hydroxyl_group,"1-Hexyl-2-methyl-3,4-dihydroxypyridine (1-Hexyl-2-methyl-3-hydroxy-1,4-dihydropyridin-4-one)",[H₂L]/[HL][H],0.1,25.0,6:13,tertiary_amine:hydroxyl_group,6(tertiary_amine) > 13(hydroxyl_group),Unknown,tertiary_amine(Unknown); hydroxyl_group(Unknown)
Cc1ccc(O)cn1,8.96,10,heterocyclic_nitrogen,5-Hydroxy-2-methylpyridine,[HL]/[L][H],0.1,25.0,10,heterocyclic_nitrogen,10(heterocyclic_nitrogen),Unknown,heterocyclic_nitrogen(Unknown)
Cc1ccc(O)cn1,5.44,10,heterocyclic_nitrogen,5-Hydroxy-2-methylpyridine,[H₂L]/[HL][H],0.1,25.0,10,heterocyclic_nitrogen,10(heterocyclic_nitrogen),Unknown,heterocyclic_nitrogen(Unknown)
OCc1ncccc1O,8.6,0:8,alcohol:phenol,3-Hydroxy-2-hydroxymethylpyridine,[HL]/[L][H],0.1,25.0,8:0,phenol:alcohol,8(phenol) > 0(alcohol),phenol,alcohol(15.0~18.0); phenol(8.0~11.0)
OCc1ncccc1O,9.07,0:8,alcohol:phenol,3-Hydroxy-2-hydroxymethylpyridine,[HL]/[L][H],0.1,20.0,8:0,phenol:alcohol,8(phenol) > 0(alcohol),phenol,alcohol(15.0~18.0); phenol(8.0~11.0)
OCc1ncccc1O,4.74,0:8,alcohol:phenol,3-Hydroxy-2-hydroxymethylpyridine,[H₂L]/[HL][H],0.1,25.0,8:0,phenol:alcohol,8(phenol) > 0(alcohol),phenol,alcohol(15.0~18.0); phenol(8.0~11.0)
OCc1ncccc1O,5.0,0:8,alcohol:phenol,3-Hydroxy-2-hydroxymethylpyridine,[H₂L]/[HL][H],0.1,20.0,8:0,phenol:alcohol,8(phenol) > 0(alcohol),phenol,alcohol(15.0~18.0); phenol(8.0~11.0)
OCc1ccncc1O,8.95,0:8,alcohol:phenol,3-Hydroxy-4-hydroxymethylpyridine,[HL]/[L][H],0.1,20.0,8:0,phenol:alcohol,8(phenol) > 0(alcohol),phenol,alcohol(15.0~18.0); phenol(8.0~11.0)
OCc1ccncc1O,5.0,0:8,alcohol:phenol,3-Hydroxy-4-hydroxymethylpyridine,[H₂L]/[HL][H],0.1,20.0,8:0,phenol:alcohol,8(phenol) > 0(alcohol),phenol,alcohol(15.0~18.0); phenol(8.0~11.0)
Cc1ncc(CO)c(C)c1O,9.34,6:10,alcohol:phenol,"3-Hydroxy-4-hydroxymethyl-2,5-dimethylpyridine (Deoxypyridoxine)",[HL]/[L][H],0.1,25.0,10:6,phenol:alcohol,10(phenol) > 6(alcohol),phenol,alcohol(15.0~18.0); phenol(8.0~11.0)
Cc1ncc(CO)c(C)c1O,5.36,6:10,alcohol:phenol,"3-Hydroxy-4-hydroxymethyl-2,5-dimethylpyridine (Deoxypyridoxine)",[H₂L]/[HL][H],0.1,25.0,10:6,phenol:alcohol,10(phenol) > 6(alcohol),phenol,alcohol(15.0~18.0); phenol(8.0~11.0)