SMILES,pKa,Dissociable_Atoms,Functional_Group,Name,Equilibrium,Ionic,Temperature,Dissociable_Atoms_Ordered,Functional_Group_Ordered,Dissociation_Order,Dissociating_Group,Functional_Group_pKa_Ranges
NC(=O)CCN(CC(O)=O)CC(O)=O,8.46,8:12,carboxylic_acid:carboxylic_acid,N-(2-Carbamylethyl)iminodiacetic acid,[HL]/[L][H],0.1,25.0,8:12,carboxylic_acid:carboxylic_acid,8(carboxylic_acid) > 12(carboxylic_acid),carboxylic_acid,carboxylic_acid(1.5~5.0); carboxylic_acid(1.5~5.0)
NC(=O)CCN(CC(O)=O)CC(O)=O,8.52,8:12,carboxylic_acid:carboxylic_acid,N-(2-Carbamylethyl)iminodiacetic acid,[HL]/[L][H],0.1,20.0,8:12,carboxylic_acid:carboxylic_acid,8(carboxylic_acid) > 12(carboxylic_acid),carboxylic_acid,carboxylic_acid(1.5~5.0); carboxylic_acid(1.5~5.0)
NC(=O)CCN(CC(O)=O)CC(O)=O,2.41,8:12,carboxylic_acid:carboxylic_acid,N-(2-Carbamylethyl)iminodiacetic acid,[H₂L]/[HL][H],0.1,25.0,8:12,carboxylic_acid:carboxylic_acid,8(carboxylic_acid) > 12(carboxylic_acid),carboxylic_acid,carboxylic_acid(1.5~5.0); carboxylic_acid(1.5~5.0)
NC(=O)CCN(CC(O)=O)CC(O)=O,2.47,8:12,carboxylic_acid:carboxylic_acid,N-(2-Carbamylethyl)iminodiacetic acid,[H₂L]/[HL][H],0.1,20.0,8:12,carboxylic_acid:carboxylic_acid,8(carboxylic_acid) > 12(carboxylic_acid),carboxylic_acid,carboxylic_acid(1.5~5.0); carboxylic_acid(1.5~5.0)
OC(=O)CNC(=O)CN(CC(O)=O)CC(O)=O,6.92,0:11:15,carboxylic_acid:carboxylic_acid:carboxylic_acid,"N,N-Bis(carboxymethyl)glycylglycine",[HL]/[L][H],0.1,25.0,0:11:15,carboxylic_acid:carboxylic_acid:carboxylic_acid,0(carboxylic_acid) > 11(carboxylic_acid) > 15(carboxylic_acid),carboxylic_acid,carboxylic_acid(1.5~5.0); carboxylic_acid(1.5~5.0); carboxylic_acid(1.5~5.0)
OC(=O)CNC(=O)CN(CC(O)=O)CC(O)=O,3.31,0:11:15,carboxylic_acid:carboxylic_acid:carboxylic_acid,"N,N-Bis(carboxymethyl)glycylglycine",[H₂L]/[HL][H],0.1,25.0,0:11:15,carboxylic_acid:carboxylic_acid:carboxylic_acid,0(carboxylic_acid) > 11(carboxylic_acid) > 15(carboxylic_acid),carboxylic_acid,carboxylic_acid(1.5~5.0); carboxylic_acid(1.5~5.0); carboxylic_acid(1.5~5.0)
OC(=O)CNC(=O)CN(CC(O)=O)CC(O)=O,2.11,0:11:15,carboxylic_acid:carboxylic_acid:carboxylic_acid,"N,N-Bis(carboxymethyl)glycylglycine",[H₃L]/[H₂L][H],0.1,25.0,0:11:15,carboxylic_acid:carboxylic_acid:carboxylic_acid,0(carboxylic_acid) > 11(carboxylic_acid) > 15(carboxylic_acid),carboxylic_acid,carboxylic_acid(1.5~5.0); carboxylic_acid(1.5~5.0); carboxylic_acid(1.5~5.0)
OC(=O)CNC(=O)CNC(=O)CN(CC(O)=O)CC(O)=O,6.56,0:15:19,carboxylic_acid:carboxylic_acid:carboxylic_acid,"N,N-Bis(carboxymethyl)glycylglycylglycine",[HL]/[L][H],0.1,25.0,0:15:19,carboxylic_acid:carboxylic_acid:carboxylic_acid,0(carboxylic_acid) > 15(carboxylic_acid) > 19(carboxylic_acid),carboxylic_acid,carboxylic_acid(1.5~5.0); carboxylic_acid(1.5~5.0); carboxylic_acid(1.5~5.0)
OC(=O)CNC(=O)CNC(=O)CN(CC(O)=O)CC(O)=O,3.55,0:15:19,carboxylic_acid:carboxylic_acid:carboxylic_acid,"N,N-Bis(carboxymethyl)glycylglycylglycine",[H₂L]/[HL][H],0.1,25.0,0:15:19,carboxylic_acid:carboxylic_acid:carboxylic_acid,0(carboxylic_acid) > 15(carboxylic_acid) > 19(carboxylic_acid),carboxylic_acid,carboxylic_acid(1.5~5.0); carboxylic_acid(1.5~5.0); carboxylic_acid(1.5~5.0)
OC(=O)CNC(=O)CNC(=O)CN(CC(O)=O)CC(O)=O,2.14,0:15:19,carboxylic_acid:carboxylic_acid:carboxylic_acid,"N,N-Bis(carboxymethyl)glycylglycylglycine",[H₃L]/[H₂L][H],0.1,25.0,0:15:19,carboxylic_acid:carboxylic_acid:carboxylic_acid,0(carboxylic_acid) > 15(carboxylic_acid) > 19(carboxylic_acid),carboxylic_acid,carboxylic_acid(1.5~5.0); carboxylic_acid(1.5~5.0); carboxylic_acid(1.5~5.0)
OC(=O)CNC(=O)CNC(=O)CNC(=O)CN(CC(O)=O)CC(O)=O,6.34,0:19:23,carboxylic_acid:carboxylic_acid:carboxylic_acid,"N,N-Bis(carboxymethyl)glycylglycylglycylglycine",[HL]/[L][H],0.1,25.0,0:19:23,carboxylic_acid:carboxylic_acid:carboxylic_acid,0(carboxylic_acid) > 19(carboxylic_acid) > 23(carboxylic_acid),carboxylic_acid,carboxylic_acid(1.5~5.0); carboxylic_acid(1.5~5.0); carboxylic_acid(1.5~5.0)
OC(=O)CNC(=O)CNC(=O)CNC(=O)CN(CC(O)=O)CC(O)=O,3.45,0:19:23,carboxylic_acid:carboxylic_acid:carboxylic_acid,"N,N-Bis(carboxymethyl)glycylglycylglycylglycine",[H₂L]/[HL][H],0.1,25.0,0:19:23,carboxylic_acid:carboxylic_acid:carboxylic_acid,0(carboxylic_acid) > 19(carboxylic_acid) > 23(carboxylic_acid),carboxylic_acid,carboxylic_acid(1.5~5.0); carboxylic_acid(1.5~5.0); carboxylic_acid(1.5~5.0)
OC(=O)CNC(=O)CNC(=O)CNC(=O)CN(CC(O)=O)CC(O)=O,2.22,0:19:23,carboxylic_acid:carboxylic_acid:carboxylic_acid,"N,N-Bis(carboxymethyl)glycylglycylglycylglycine",[H₃L]/[H₂L][H],0.1,25.0,0:19:23,carboxylic_acid:carboxylic_acid:carboxylic_acid,0(carboxylic_acid) > 19(carboxylic_acid) > 23(carboxylic_acid),carboxylic_acid,carboxylic_acid(1.5~5.0); carboxylic_acid(1.5~5.0); carboxylic_acid(1.5~5.0)
OC(=O)CN(CC(O)=O)CC(=O)Nc1ccc(Br)cc1,5.79,0:7:12,carboxylic_acid:carboxylic_acid:amine_secondary,N-(4-Bromophenylcarbamylmethyl)iminodiacetic acid,[HL]/[L][H],0.1,30.0,0:7:12,carboxylic_acid:carboxylic_acid:amine_secondary,0(carboxylic_acid) > 7(carboxylic_acid) > 12(amine_secondary),carboxylic_acid,carboxylic_acid(1.5~5.0); carboxylic_acid(1.5~5.0); amine_secondary(9.5~11.5)
OC(=O)CN(CC(O)=O)CC(=O)Nc1ccc(Br)cc1,2.09,0:7:12,carboxylic_acid:carboxylic_acid:amine_secondary,N-(4-Bromophenylcarbamylmethyl)iminodiacetic acid,[H₂L]/[HL][H],0.1,30.0,0:7:12,carboxylic_acid:carboxylic_acid:amine_secondary,0(carboxylic_acid) > 7(carboxylic_acid) > 12(amine_secondary),carboxylic_acid,carboxylic_acid(1.5~5.0); carboxylic_acid(1.5~5.0); amine_secondary(9.5~11.5)
OC(=O)CN(CC(O)=O)CC(=O)Nc1ccc(Br)cc1,1.5,0:7:12,carboxylic_acid:carboxylic_acid:amine_secondary,N-(4-Bromophenylcarbamylmethyl)iminodiacetic acid,[H₃L]/[H₂L][H],0.1,30.0,0:7:12,carboxylic_acid:carboxylic_acid:amine_secondary,0(carboxylic_acid) > 7(carboxylic_acid) > 12(amine_secondary),carboxylic_acid,carboxylic_acid(1.5~5.0); carboxylic_acid(1.5~5.0); amine_secondary(9.5~11.5)
OC(=O)CN(CC(O)=O)C1C(=O)NC(=O)NC1=O,9.55,0:7:12,carboxylic_acid:carboxylic_acid:amine_secondary,"5-Amino-2,4,6-trioxo-1,3-perhydrodiazine-N,N-diacetic acid (Uramil-N,N-diacetic acid)",[HL]/[L][H],0.1,25.0,0:7:12,carboxylic_acid:carboxylic_acid:amine_secondary,0(carboxylic_acid) > 7(carboxylic_acid) > 12(amine_secondary),amine_secondary,carboxylic_acid(1.5~5.0); carboxylic_acid(1.5~5.0); amine_secondary(9.5~11.5)
OC(=O)CN(CC(O)=O)C1C(=O)NC(=O)NC1=O,9.71,0:7:12,carboxylic_acid:carboxylic_acid:amine_secondary,"5-Amino-2,4,6-trioxo-1,3-perhydrodiazine-N,N-diacetic acid (Uramil-N,N-diacetic acid)",[HL]/[L][H],0.1,25.0,0:7:12,carboxylic_acid:carboxylic_acid:amine_secondary,0(carboxylic_acid) > 7(carboxylic_acid) > 12(amine_secondary),amine_secondary,carboxylic_acid(1.5~5.0); carboxylic_acid(1.5~5.0); amine_secondary(9.5~11.5)
OC(=O)CN(CC(O)=O)C1C(=O)NC(=O)NC1=O,10.33,0:7:12,carboxylic_acid:carboxylic_acid:amine_secondary,"5-Amino-2,4,6-trioxo-1,3-perhydrodiazine-N,N-diacetic acid (Uramil-N,N-diacetic acid)",[HL]/[L][H],0.0,20.0,0:7:12,carboxylic_acid:carboxylic_acid:amine_secondary,0(carboxylic_acid) > 7(carboxylic_acid) > 12(amine_secondary),amine_secondary,carboxylic_acid(1.5~5.0); carboxylic_acid(1.5~5.0); amine_secondary(9.5~11.5)
OC(=O)CN(CC(O)=O)C1C(=O)NC(=O)NC1=O,2.75,0:7:12,carboxylic_acid:carboxylic_acid:amine_secondary,"5-Amino-2,4,6-trioxo-1,3-perhydrodiazine-N,N-diacetic acid (Uramil-N,N-diacetic acid)",[H₂L]/[HL][H],0.1,25.0,0:7:12,carboxylic_acid:carboxylic_acid:amine_secondary,0(carboxylic_acid) > 7(carboxylic_acid) > 12(amine_secondary),carboxylic_acid,carboxylic_acid(1.5~5.0); carboxylic_acid(1.5~5.0); amine_secondary(9.5~11.5)
OC(=O)CN(CC(O)=O)C1C(=O)NC(=O)NC1=O,2.67,0:7:12,carboxylic_acid:carboxylic_acid:amine_secondary,"5-Amino-2,4,6-trioxo-1,3-perhydrodiazine-N,N-diacetic acid (Uramil-N,N-diacetic acid)",[H₂L]/[HL][H],0.1,20.0,0:7:12,carboxylic_acid:carboxylic_acid:amine_secondary,0(carboxylic_acid) > 7(carboxylic_acid) > 12(amine_secondary),carboxylic_acid,carboxylic_acid(1.5~5.0); carboxylic_acid(1.5~5.0); amine_secondary(9.5~11.5)
OC(=O)CN(CC(O)=O)C1C(=O)NC(=O)NC1=O,3.1,0:7:12,carboxylic_acid:carboxylic_acid:amine_secondary,"5-Amino-2,4,6-trioxo-1,3-perhydrodiazine-N,N-diacetic acid (Uramil-N,N-diacetic acid)",[H₂L]/[HL][H],0.0,20.0,0:7:12,carboxylic_acid:carboxylic_acid:amine_secondary,0(carboxylic_acid) > 7(carboxylic_acid) > 12(amine_secondary),carboxylic_acid,carboxylic_acid(1.5~5.0); carboxylic_acid(1.5~5.0); amine_secondary(9.5~11.5)
OC(=O)CN(CC(O)=O)C1C(=O)NC(=O)NC1=O,1.9,0:7:12,carboxylic_acid:carboxylic_acid:amine_secondary,"5-Amino-2,4,6-trioxo-1,3-perhydrodiazine-N,N-diacetic acid (Uramil-N,N-diacetic acid)",[H₃L]/[H₂L][H],0.1,25.0,0:7:12,carboxylic_acid:carboxylic_acid:amine_secondary,0(carboxylic_acid) > 7(carboxylic_acid) > 12(amine_secondary),carboxylic_acid,carboxylic_acid(1.5~5.0); carboxylic_acid(1.5~5.0); amine_secondary(9.5~11.5)
OC(=O)CN(CC(O)=O)C1C(=O)NC(=O)NC1=O,1.7,0:7:12,carboxylic_acid:carboxylic_acid:amine_secondary,"5-Amino-2,4,6-trioxo-1,3-perhydrodiazine-N,N-diacetic acid (Uramil-N,N-diacetic acid)",[H₃L]/[H₂L][H],0.1,20.0,0:7:12,carboxylic_acid:carboxylic_acid:amine_secondary,0(carboxylic_acid) > 7(carboxylic_acid) > 12(amine_secondary),carboxylic_acid,carboxylic_acid(1.5~5.0); carboxylic_acid(1.5~5.0); amine_secondary(9.5~11.5)
OC(=O)CN(CC(O)=O)C1C(=O)NC(=O)NC1=O,1.9,0:7:12,carboxylic_acid:carboxylic_acid:amine_secondary,"5-Amino-2,4,6-trioxo-1,3-perhydrodiazine-N,N-diacetic acid (Uramil-N,N-diacetic acid)",[H₃L]/[H₂L][H],0.0,20.0,0:7:12,carboxylic_acid:carboxylic_acid:amine_secondary,0(carboxylic_acid) > 7(carboxylic_acid) > 12(amine_secondary),carboxylic_acid,carboxylic_acid(1.5~5.0); carboxylic_acid(1.5~5.0); amine_secondary(9.5~11.5)
CCOC(=O)NCCN(CC(O)=O)CC(O)=O,8.57,11:15,carboxylic_acid:carboxylic_acid,N-[2-(Ethoxyformylamino)ethyl]iminodiacetic acid,[HL]/[L][H],0.1,20.0,11:15,carboxylic_acid:carboxylic_acid,11(carboxylic_acid) > 15(carboxylic_acid),carboxylic_acid,carboxylic_acid(1.5~5.0); carboxylic_acid(1.5~5.0)
CCOC(=O)NCCN(CC(O)=O)CC(O)=O,2.2,11:15,carboxylic_acid:carboxylic_acid,N-[2-(Ethoxyformylamino)ethyl]iminodiacetic acid,[H₂L]/[HL][H],0.1,20.0,11:15,carboxylic_acid:carboxylic_acid,11(carboxylic_acid) > 15(carboxylic_acid),carboxylic_acid,carboxylic_acid(1.5~5.0); carboxylic_acid(1.5~5.0)
OC(=O)CN(CCS)CC(O)=O,10.79,0:7:10,carboxylic_acid:thiol:carboxylic_acid,N-(2-Mercaptoethyl)iminodiacetic acid,[HL]/[L][H],0.1,20.0,0:10:7,carboxylic_acid:carboxylic_acid:thiol,0(carboxylic_acid) > 10(carboxylic_acid) > 7(thiol),thiol,carboxylic_acid(1.5~5.0); thiol(8.0~11.0); carboxylic_acid(1.5~5.0)
OC(=O)CN(CCS)CC(O)=O,8.17,0:7:10,carboxylic_acid:thiol:carboxylic_acid,N-(2-Mercaptoethyl)iminodiacetic acid,[H₂L]/[HL][H],0.1,20.0,0:10:7,carboxylic_acid:carboxylic_acid:thiol,0(carboxylic_acid) > 10(carboxylic_acid) > 7(thiol),thiol,carboxylic_acid(1.5~5.0); thiol(8.0~11.0); carboxylic_acid(1.5~5.0)
OC(=O)CN(CCS)CC(O)=O,2.14,0:7:10,carboxylic_acid:thiol:carboxylic_acid,N-(2-Mercaptoethyl)iminodiacetic acid,[H₃L]/[H₂L][H],0.1,20.0,0:10:7,carboxylic_acid:carboxylic_acid:thiol,0(carboxylic_acid) > 10(carboxylic_acid) > 7(thiol),carboxylic_acid,carboxylic_acid(1.5~5.0); thiol(8.0~11.0); carboxylic_acid(1.5~5.0)
CSCCN(CC(O)=O)CC(O)=O,8.89,7:11,carboxylic_acid:carboxylic_acid,N-[2-(Methylthio)ethyl]iminodiacetic acid,[HL]/[L][H],0.1,25.0,7:11,carboxylic_acid:carboxylic_acid,7(carboxylic_acid) > 11(carboxylic_acid),carboxylic_acid,carboxylic_acid(1.5~5.0); carboxylic_acid(1.5~5.0)
CSCCN(CC(O)=O)CC(O)=O,8.91,7:11,carboxylic_acid:carboxylic_acid,N-[2-(Methylthio)ethyl]iminodiacetic acid,[HL]/[L][H],0.1,20.0,7:11,carboxylic_acid:carboxylic_acid,7(carboxylic_acid) > 11(carboxylic_acid),carboxylic_acid,carboxylic_acid(1.5~5.0); carboxylic_acid(1.5~5.0)
CSCCN(CC(O)=O)CC(O)=O,2.0,7:11,carboxylic_acid:carboxylic_acid,N-[2-(Methylthio)ethyl]iminodiacetic acid,[H₂L]/[HL][H],0.1,25.0,7:11,carboxylic_acid:carboxylic_acid,7(carboxylic_acid) > 11(carboxylic_acid),carboxylic_acid,carboxylic_acid(1.5~5.0); carboxylic_acid(1.5~5.0)
CSCCN(CC(O)=O)CC(O)=O,2.1,7:11,carboxylic_acid:carboxylic_acid,N-[2-(Methylthio)ethyl]iminodiacetic acid,[H₂L]/[HL][H],0.1,20.0,7:11,carboxylic_acid:carboxylic_acid,7(carboxylic_acid) > 11(carboxylic_acid),carboxylic_acid,carboxylic_acid(1.5~5.0); carboxylic_acid(1.5~5.0)
OC(=O)CN(CC(O)=O)CC(=O)c1sccc1,7.46,0:7,carboxylic_acid:carboxylic_acid,N-(2-Thienoylmethyl)iminodiacetic acid,[HL]/[L][H],0.1,25.0,0:7,carboxylic_acid:carboxylic_acid,0(carboxylic_acid) > 7(carboxylic_acid),carboxylic_acid,carboxylic_acid(1.5~5.0); carboxylic_acid(1.5~5.0)
OC(=O)CN(CC(O)=O)CC(=O)c1sccc1,2.0,0:7,carboxylic_acid:carboxylic_acid,N-(2-Thienoylmethyl)iminodiacetic acid,[H₂L]/[HL][H],0.1,25.0,0:7,carboxylic_acid:carboxylic_acid,0(carboxylic_acid) > 7(carboxylic_acid),carboxylic_acid,carboxylic_acid(1.5~5.0); carboxylic_acid(1.5~5.0)
CC(=NO)C(CN(CC(O)=O)CC(O)=O)=NO,12.2,3:9:13:16,alcohol:carboxylic_acid:carboxylic_acid:alcohol,"1-[Bis(carboxymethyl)amino]butan-2,3-dione dioxime",[HL]/[L][H],0.1,25.0,9:13:3:16,carboxylic_acid:carboxylic_acid:alcohol:alcohol,9(carboxylic_acid) > 13(carboxylic_acid) > 3(alcohol) > 16(alcohol),alcohol,alcohol(15.0~18.0); carboxylic_acid(1.5~5.0); carboxylic_acid(1.5~5.0); alcohol(15.0~18.0)
CC(=NO)C(CN(CC(O)=O)CC(O)=O)=NO,10.47,3:9:13:16,alcohol:carboxylic_acid:carboxylic_acid:alcohol,"1-[Bis(carboxymethyl)amino]butan-2,3-dione dioxime",[H₂L]/[HL][H],0.1,25.0,9:13:3:16,carboxylic_acid:carboxylic_acid:alcohol:alcohol,9(carboxylic_acid) > 13(carboxylic_acid) > 3(alcohol) > 16(alcohol),alcohol,alcohol(15.0~18.0); carboxylic_acid(1.5~5.0); carboxylic_acid(1.5~5.0); alcohol(15.0~18.0)
CC(=NO)C(CN(CC(O)=O)CC(O)=O)=NO,8.23,3:9:13:16,alcohol:carboxylic_acid:carboxylic_acid:alcohol,"1-[Bis(carboxymethyl)amino]butan-2,3-dione dioxime",[H₃L]/[H₂L][H],0.1,25.0,9:13:3:16,carboxylic_acid:carboxylic_acid:alcohol:alcohol,9(carboxylic_acid) > 13(carboxylic_acid) > 3(alcohol) > 16(alcohol),carboxylic_acid,alcohol(15.0~18.0); carboxylic_acid(1.5~5.0); carboxylic_acid(1.5~5.0); alcohol(15.0~18.0)
CC(=NO)C(CN(CC(O)=O)CC(O)=O)=NO,2.03,3:9:13:16,alcohol:carboxylic_acid:carboxylic_acid:alcohol,"1-[Bis(carboxymethyl)amino]butan-2,3-dione dioxime",[H₄L]/[H₃L][H],0.1,25.0,9:13:3:16,carboxylic_acid:carboxylic_acid:alcohol:alcohol,9(carboxylic_acid) > 13(carboxylic_acid) > 3(alcohol) > 16(alcohol),carboxylic_acid,alcohol(15.0~18.0); carboxylic_acid(1.5~5.0); carboxylic_acid(1.5~5.0); alcohol(15.0~18.0)
OC(=O)CSCCN(CC(O)=O)CC(O)=O,8.82,0:10:14,carboxylic_acid:carboxylic_acid:carboxylic_acid,N-[2-(Carboxymethylthio)ethyl]iminodiacetic acid,[HL]/[L][H],0.1,25.0,0:10:14,carboxylic_acid:carboxylic_acid:carboxylic_acid,0(carboxylic_acid) > 10(carboxylic_acid) > 14(carboxylic_acid),carboxylic_acid,carboxylic_acid(1.5~5.0); carboxylic_acid(1.5~5.0); carboxylic_acid(1.5~5.0)
OC(=O)CSCCN(CC(O)=O)CC(O)=O,3.53,0:10:14,carboxylic_acid:carboxylic_acid:carboxylic_acid,N-[2-(Carboxymethylthio)ethyl]iminodiacetic acid,[H₂L]/[HL][H],0.1,25.0,0:10:14,carboxylic_acid:carboxylic_acid:carboxylic_acid,0(carboxylic_acid) > 10(carboxylic_acid) > 14(carboxylic_acid),carboxylic_acid,carboxylic_acid(1.5~5.0); carboxylic_acid(1.5~5.0); carboxylic_acid(1.5~5.0)
OC(=O)CSCCN(CC(O)=O)CC(O)=O,2.0,0:10:14,carboxylic_acid:carboxylic_acid:carboxylic_acid,N-[2-(Carboxymethylthio)ethyl]iminodiacetic acid,[H₃L]/[H₂L][H],0.1,25.0,0:10:14,carboxylic_acid:carboxylic_acid:carboxylic_acid,0(carboxylic_acid) > 10(carboxylic_acid) > 14(carboxylic_acid),carboxylic_acid,carboxylic_acid(1.5~5.0); carboxylic_acid(1.5~5.0); carboxylic_acid(1.5~5.0)
OC(=O)CN(CCN[S](=O)(=O)c1ccccc1)CC(O)=O,7.82,0:19,carboxylic_acid:carboxylic_acid,N-[2-(Phenylsulfonylamino)ethyl]iminodiacetic acid,[HL]/[L][H],0.1,25.0,0:19,carboxylic_acid:carboxylic_acid,0(carboxylic_acid) > 19(carboxylic_acid),carboxylic_acid,carboxylic_acid(1.5~5.0); carboxylic_acid(1.5~5.0)
OC(=O)CN(CCN[S](=O)(=O)c1ccccc1)CC(O)=O,2.1,0:19,carboxylic_acid:carboxylic_acid,N-[2-(Phenylsulfonylamino)ethyl]iminodiacetic acid,[H₂L]/[HL][H],0.1,25.0,0:19,carboxylic_acid:carboxylic_acid,0(carboxylic_acid) > 19(carboxylic_acid),carboxylic_acid,carboxylic_acid(1.5~5.0); carboxylic_acid(1.5~5.0)
Cc1ccc(cc1)[S](=O)(=O)NCCN(CC(O)=O)CC(O)=O,7.86,16:20,carboxylic_acid:carboxylic_acid,N-[2-(4-Methylphenylsulfonylamino)ethyl]iminodiacetic acid,[HL]/[L][H],0.1,25.0,16:20,carboxylic_acid:carboxylic_acid,16(carboxylic_acid) > 20(carboxylic_acid),carboxylic_acid,carboxylic_acid(1.5~5.0); carboxylic_acid(1.5~5.0)
Cc1ccc(cc1)[S](=O)(=O)NCCN(CC(O)=O)CC(O)=O,2.15,16:20,carboxylic_acid:carboxylic_acid,N-[2-(4-Methylphenylsulfonylamino)ethyl]iminodiacetic acid,[H₂L]/[HL][H],0.1,25.0,16:20,carboxylic_acid:carboxylic_acid,16(carboxylic_acid) > 20(carboxylic_acid),carboxylic_acid,carboxylic_acid(1.5~5.0); carboxylic_acid(1.5~5.0)
OC(=O)CN(CCN[S](=O)(=O)c1ccc(CCBr)cc1)CC(O)=O,7.75,0:22,carboxylic_acid:carboxylic_acid,N-{2-[4-(2-Bromoethyl)phenylsulfonylamino]ethyl}iminodiacetic acid,[HL]/[L][H],0.1,25.0,0:22,carboxylic_acid:carboxylic_acid,0(carboxylic_acid) > 22(carboxylic_acid),carboxylic_acid,carboxylic_acid(1.5~5.0); carboxylic_acid(1.5~5.0)
OC(=O)CN(CCN[S](=O)(=O)c1ccc(CCBr)cc1)CC(O)=O,2.15,0:22,carboxylic_acid:carboxylic_acid,N-{2-[4-(2-Bromoethyl)phenylsulfonylamino]ethyl}iminodiacetic acid,[H₂L]/[HL][H],0.1,25.0,0:22,carboxylic_acid:carboxylic_acid,0(carboxylic_acid) > 22(carboxylic_acid),carboxylic_acid,carboxylic_acid(1.5~5.0); carboxylic_acid(1.5~5.0)
CC(=O)NCCN(CC(O)=O)CC(O)=O,8.17,9:13,carboxylic_acid:carboxylic_acid,N-[2-(Acetamido)ethyl]iminodiacetic acid,[HL]/[L][H],0.1,25.0,9:13,carboxylic_acid:carboxylic_acid,9(carboxylic_acid) > 13(carboxylic_acid),carboxylic_acid,carboxylic_acid(1.5~5.0); carboxylic_acid(1.5~5.0)
CC(=O)NCCN(CC(O)=O)CC(O)=O,1.9,9:13,carboxylic_acid:carboxylic_acid,N-[2-(Acetamido)ethyl]iminodiacetic acid,[H₂L]/[HL][H],0.1,25.0,9:13,carboxylic_acid:carboxylic_acid,9(carboxylic_acid) > 13(carboxylic_acid),carboxylic_acid,carboxylic_acid(1.5~5.0); carboxylic_acid(1.5~5.0)
OCCN(CCN(CC(O)=O)CC(O)=O)CC(O)=O,9.7,0:9:13:17,alcohol:carboxylic_acid:carboxylic_acid:carboxylic_acid,N-(2-Hydroxyethyl)ethylenedinitrilotriacetic acid (HEDTA),[HL]/[L][H],0.1,25.0,9:13:17:0,carboxylic_acid:carboxylic_acid:carboxylic_acid:alcohol,9(carboxylic_acid) > 13(carboxylic_acid) > 17(carboxylic_acid) > 0(alcohol),carboxylic_acid,alcohol(15.0~18.0); carboxylic_acid(1.5~5.0); carboxylic_acid(1.5~5.0); carboxylic_acid(1.5~5.0)
OCCN(CCN(CC(O)=O)CC(O)=O)CC(O)=O,9.87,0:9:13:17,alcohol:carboxylic_acid:carboxylic_acid:carboxylic_acid,N-(2-Hydroxyethyl)ethylenedinitrilotriacetic acid (HEDTA),[HL]/[L][H],0.1,25.0,9:13:17:0,carboxylic_acid:carboxylic_acid:carboxylic_acid:alcohol,9(carboxylic_acid) > 13(carboxylic_acid) > 17(carboxylic_acid) > 0(alcohol),carboxylic_acid,alcohol(15.0~18.0); carboxylic_acid(1.5~5.0); carboxylic_acid(1.5~5.0); carboxylic_acid(1.5~5.0)
OCCN(CCN(CC(O)=O)CC(O)=O)CC(O)=O,9.79,0:9:13:17,alcohol:carboxylic_acid:carboxylic_acid:carboxylic_acid,N-(2-Hydroxyethyl)ethylenedinitrilotriacetic acid (HEDTA),[HL]/[L][H],0.5,25.0,9:13:17:0,carboxylic_acid:carboxylic_acid:carboxylic_acid:alcohol,9(carboxylic_acid) > 13(carboxylic_acid) > 17(carboxylic_acid) > 0(alcohol),carboxylic_acid,alcohol(15.0~18.0); carboxylic_acid(1.5~5.0); carboxylic_acid(1.5~5.0); carboxylic_acid(1.5~5.0)
OCCN(CCN(CC(O)=O)CC(O)=O)CC(O)=O,9.2,0:9:13:17,alcohol:carboxylic_acid:carboxylic_acid:carboxylic_acid,N-(2-Hydroxyethyl)ethylenedinitrilotriacetic acid (HEDTA),[HL]/[L][H],1.0,25.0,9:13:17:0,carboxylic_acid:carboxylic_acid:carboxylic_acid:alcohol,9(carboxylic_acid) > 13(carboxylic_acid) > 17(carboxylic_acid) > 0(alcohol),carboxylic_acid,alcohol(15.0~18.0); carboxylic_acid(1.5~5.0); carboxylic_acid(1.5~5.0); carboxylic_acid(1.5~5.0)