SMILES,pKa,Dissociable_Atoms,Functional_Group,Name,Equilibrium,Ionic,Temperature,Dissociable_Atoms_Ordered,Functional_Group_Ordered,Dissociation_Order,Dissociating_Group,Functional_Group_pKa_Ranges
N[C@@H](Cc1ccc(O)cc1)C(=O)N2CCC[C@H]2C(=O)NCC(=O)NCC(O)=O,3.29,26:0:19,carboxylic_acid:amine_primary:amine_secondary,L-Tyrosyl-L-prolylglycylglycine,[H₃L]/[H₂L][H],0.1,22.0,26:0:19,carboxylic_acid:amine_primary:amine_secondary,26(carboxylic_acid) > 0(amine_primary) > 19(amine_secondary),carboxylic_acid,carboxylic_acid(1.5~5.0); amine_primary(9.0~11.0); amine_secondary(9.5~11.5)
N[C@@H](Cc1ccc(O)cc1)C(=O)N2CCC[C@H]2C(=O)NCC(=O)N[C@@H](Cc3ccc(O)cc3)C(O)=O,10.12,34:0:19:23,carboxylic_acid:amine_primary:amine_secondary:amine_secondary,L-Tyrosyl-L-prolylglycyl-L-tyrosine,[HL]/[L][H],0.1,25.0,34:0:19:23,carboxylic_acid:amine_primary:amine_secondary:amine_secondary,34(carboxylic_acid) > 0(amine_primary) > 19(amine_secondary) > 23(amine_secondary),amine_primary,carboxylic_acid(1.5~5.0); amine_primary(9.0~11.0); amine_secondary(9.5~11.5); amine_secondary(9.5~11.5)
N[C@@H](Cc1ccc(O)cc1)C(=O)N2CCC[C@H]2C(=O)NCC(=O)N[C@@H](Cc3ccc(O)cc3)C(O)=O,9.75,34:0:19:23,carboxylic_acid:amine_primary:amine_secondary:amine_secondary,L-Tyrosyl-L-prolylglycyl-L-tyrosine,[H₂L]/[HL][H],0.1,25.0,34:0:19:23,carboxylic_acid:amine_primary:amine_secondary:amine_secondary,34(carboxylic_acid) > 0(amine_primary) > 19(amine_secondary) > 23(amine_secondary),amine_primary,carboxylic_acid(1.5~5.0); amine_primary(9.0~11.0); amine_secondary(9.5~11.5); amine_secondary(9.5~11.5)
N[C@@H](Cc1ccc(O)cc1)C(=O)N2CCC[C@H]2C(=O)NCC(=O)N[C@@H](Cc3ccc(O)cc3)C(O)=O,7.61,34:0:19:23,carboxylic_acid:amine_primary:amine_secondary:amine_secondary,L-Tyrosyl-L-prolylglycyl-L-tyrosine,[H₃L]/[H₂L][H],0.1,25.0,34:0:19:23,carboxylic_acid:amine_primary:amine_secondary:amine_secondary,34(carboxylic_acid) > 0(amine_primary) > 19(amine_secondary) > 23(amine_secondary),amine_primary,carboxylic_acid(1.5~5.0); amine_primary(9.0~11.0); amine_secondary(9.5~11.5); amine_secondary(9.5~11.5)
N[C@@H](Cc1ccc(O)cc1)C(=O)N2CCC[C@H]2C(=O)NCC(=O)N[C@@H](Cc3ccc(O)cc3)C(O)=O,2.74,34:0:19:23,carboxylic_acid:amine_primary:amine_secondary:amine_secondary,L-Tyrosyl-L-prolylglycyl-L-tyrosine,[H₄L]/[H₃L][H],0.1,25.0,34:0:19:23,carboxylic_acid:amine_primary:amine_secondary:amine_secondary,34(carboxylic_acid) > 0(amine_primary) > 19(amine_secondary) > 23(amine_secondary),carboxylic_acid,carboxylic_acid(1.5~5.0); amine_primary(9.0~11.0); amine_secondary(9.5~11.5); amine_secondary(9.5~11.5)
C[C@H](N)C(=O)N[C@@H](CC(O)=O)C(=O)N[C@@H](CO)C(=O)NCC(O)=O,8.33,9:22:2,carboxylic_acid:carboxylic_acid:amine_primary,L-Alanyl-L-aspartyl-L-serylglycine,[HL]/[L][H],0.1,25.0,9:22:2,carboxylic_acid:carboxylic_acid:amine_primary,9(carboxylic_acid) > 22(carboxylic_acid) > 2(amine_primary),amine_primary,carboxylic_acid(1.5~5.0); carboxylic_acid(1.5~5.0); amine_primary(9.0~11.0)
C[C@H](N)C(=O)N[C@@H](CC(O)=O)C(=O)N[C@@H](CO)C(=O)NCC(O)=O,4.02,9:22:2,carboxylic_acid:carboxylic_acid:amine_primary,L-Alanyl-L-aspartyl-L-serylglycine,[H₂L]/[HL][H],0.1,25.0,9:22:2,carboxylic_acid:carboxylic_acid:amine_primary,9(carboxylic_acid) > 22(carboxylic_acid) > 2(amine_primary),carboxylic_acid,carboxylic_acid(1.5~5.0); carboxylic_acid(1.5~5.0); amine_primary(9.0~11.0)
C[C@H](N)C(=O)N[C@@H](CC(O)=O)C(=O)N[C@@H](CO)C(=O)NCC(O)=O,3.21,9:22:2,carboxylic_acid:carboxylic_acid:amine_primary,L-Alanyl-L-aspartyl-L-serylglycine,[H₃L]/[H₂L][H],0.1,25.0,9:22:2,carboxylic_acid:carboxylic_acid:amine_primary,9(carboxylic_acid) > 22(carboxylic_acid) > 2(amine_primary),carboxylic_acid,carboxylic_acid(1.5~5.0); carboxylic_acid(1.5~5.0); amine_primary(9.0~11.0)
NCCCC[C@H](NC(=O)[C@@H]1CCCN1C(=O)CNC(=O)CN)C(O)=O,9.88,23:0:21,carboxylic_acid:amine_primary:amine_primary,Glycylglycyl-L-prolyl-L-lysine,[HL]/[L][H],0.1,25.0,23:0:21,carboxylic_acid:amine_primary:amine_primary,23(carboxylic_acid) > 0(amine_primary) > 21(amine_primary),amine_primary,carboxylic_acid(1.5~5.0); amine_primary(9.0~11.0); amine_primary(9.0~11.0)
NCCCC[C@H](NC(=O)[C@@H]1CCCN1C(=O)CNC(=O)CN)C(O)=O,8.03,23:0:21,carboxylic_acid:amine_primary:amine_primary,Glycylglycyl-L-prolyl-L-lysine,[H₂L]/[HL][H],0.1,25.0,23:0:21,carboxylic_acid:amine_primary:amine_primary,23(carboxylic_acid) > 0(amine_primary) > 21(amine_primary),amine_primary,carboxylic_acid(1.5~5.0); amine_primary(9.0~11.0); amine_primary(9.0~11.0)
NCCCC[C@H](NC(=O)[C@@H]1CCCN1C(=O)CNC(=O)CN)C(O)=O,3.19,23:0:21,carboxylic_acid:amine_primary:amine_primary,Glycylglycyl-L-prolyl-L-lysine,[H₃L]/[H₂L][H],0.1,25.0,23:0:21,carboxylic_acid:amine_primary:amine_primary,23(carboxylic_acid) > 0(amine_primary) > 21(amine_primary),carboxylic_acid,carboxylic_acid(1.5~5.0); amine_primary(9.0~11.0); amine_primary(9.0~11.0)
C[C@H](N)C(=O)N[C@@H](CCCCN)C(=O)N[C@@H](C)C(=O)N[C@@H](C)C(O)=O,10.47,23:2:11,carboxylic_acid:amine_primary:amine_primary,L-Alanyl-L-lysyl-L-alanyl-L-alanine,[HL]/[L][H],0.1,25.0,23:2:11,carboxylic_acid:amine_primary:amine_primary,23(carboxylic_acid) > 2(amine_primary) > 11(amine_primary),amine_primary,carboxylic_acid(1.5~5.0); amine_primary(9.0~11.0); amine_primary(9.0~11.0)
C[C@H](N)C(=O)N[C@@H](CCCCN)C(=O)N[C@@H](C)C(=O)N[C@@H](C)C(O)=O,7.9,23:2:11,carboxylic_acid:amine_primary:amine_primary,L-Alanyl-L-lysyl-L-alanyl-L-alanine,[H₂L]/[HL][H],0.1,25.0,23:2:11,carboxylic_acid:amine_primary:amine_primary,23(carboxylic_acid) > 2(amine_primary) > 11(amine_primary),amine_primary,carboxylic_acid(1.5~5.0); amine_primary(9.0~11.0); amine_primary(9.0~11.0)
C[C@H](N)C(=O)N[C@@H](CCCCN)C(=O)N[C@@H](C)C(=O)N[C@@H](C)C(O)=O,3.47,23:2:11,carboxylic_acid:amine_primary:amine_primary,L-Alanyl-L-lysyl-L-alanyl-L-alanine,[H₃L]/[H₂L][H],0.1,25.0,23:2:11,carboxylic_acid:amine_primary:amine_primary,23(carboxylic_acid) > 2(amine_primary) > 11(amine_primary),carboxylic_acid,carboxylic_acid(1.5~5.0); amine_primary(9.0~11.0); amine_primary(9.0~11.0)
C[C@H](N)C(=O)N[C@H](CCCCN)C(=O)N[C@@H](C)C(=O)N[C@@H](C)C(O)=O,10.26,23:2:11,carboxylic_acid:amine_primary:amine_primary,L-Alanyl-D-lysyl-L-alanyl-L-alanine,[HL]/[L][H],0.1,25.0,23:2:11,carboxylic_acid:amine_primary:amine_primary,23(carboxylic_acid) > 2(amine_primary) > 11(amine_primary),amine_primary,carboxylic_acid(1.5~5.0); amine_primary(9.0~11.0); amine_primary(9.0~11.0)
C[C@H](N)C(=O)N[C@H](CCCCN)C(=O)N[C@@H](C)C(=O)N[C@@H](C)C(O)=O,7.9,23:2:11,carboxylic_acid:amine_primary:amine_primary,L-Alanyl-D-lysyl-L-alanyl-L-alanine,[H₂L]/[HL][H],0.1,25.0,23:2:11,carboxylic_acid:amine_primary:amine_primary,23(carboxylic_acid) > 2(amine_primary) > 11(amine_primary),amine_primary,carboxylic_acid(1.5~5.0); amine_primary(9.0~11.0); amine_primary(9.0~11.0)
C[C@H](N)C(=O)N[C@H](CCCCN)C(=O)N[C@@H](C)C(=O)N[C@@H](C)C(O)=O,3.21,23:2:11,carboxylic_acid:amine_primary:amine_primary,L-Alanyl-D-lysyl-L-alanyl-L-alanine,[H₃L]/[H₂L][H],0.1,25.0,23:2:11,carboxylic_acid:amine_primary:amine_primary,23(carboxylic_acid) > 2(amine_primary) > 11(amine_primary),carboxylic_acid,carboxylic_acid(1.5~5.0); amine_primary(9.0~11.0); amine_primary(9.0~11.0)
CC(C)[C@H](NC(=O)[C@H](CC(O)=O)NC(=O)[C@H](CCCCN)NC(=O)[C@@H](N)CCCNC(N)=N)C(O)=O,10.48,10:34:20:25,carboxylic_acid:carboxylic_acid:amine_primary:amine_primary,L-Arginyl-L-lysyl-L-aspartyl-L-valine,[HL]/[L][H],0.1,25.0,10:34:20:25,carboxylic_acid:carboxylic_acid:amine_primary:amine_primary,10(carboxylic_acid) > 34(carboxylic_acid) > 20(amine_primary) > 25(amine_primary),amine_primary,carboxylic_acid(1.5~5.0); carboxylic_acid(1.5~5.0); amine_primary(9.0~11.0); amine_primary(9.0~11.0)
CC(C)[C@H](NC(=O)[C@H](CC(O)=O)NC(=O)[C@H](CCCCN)NC(=O)[C@@H](N)CCCNC(N)=N)C(O)=O,7.34,10:34:20:25,carboxylic_acid:carboxylic_acid:amine_primary:amine_primary,L-Arginyl-L-lysyl-L-aspartyl-L-valine,[H₂L]/[HL][H],0.1,25.0,10:34:20:25,carboxylic_acid:carboxylic_acid:amine_primary:amine_primary,10(carboxylic_acid) > 34(carboxylic_acid) > 20(amine_primary) > 25(amine_primary),amine_primary,carboxylic_acid(1.5~5.0); carboxylic_acid(1.5~5.0); amine_primary(9.0~11.0); amine_primary(9.0~11.0)
CC(C)[C@H](NC(=O)[C@H](CC(O)=O)NC(=O)[C@H](CCCCN)NC(=O)[C@@H](N)CCCNC(N)=N)C(O)=O,3.89,10:34:20:25,carboxylic_acid:carboxylic_acid:amine_primary:amine_primary,L-Arginyl-L-lysyl-L-aspartyl-L-valine,[H₃L]/[H₂L][H],0.1,25.0,10:34:20:25,carboxylic_acid:carboxylic_acid:amine_primary:amine_primary,10(carboxylic_acid) > 34(carboxylic_acid) > 20(amine_primary) > 25(amine_primary),carboxylic_acid,carboxylic_acid(1.5~5.0); carboxylic_acid(1.5~5.0); amine_primary(9.0~11.0); amine_primary(9.0~11.0)
CC(C)[C@H](NC(=O)[C@H](CC(O)=O)NC(=O)[C@H](CCCCN)NC(=O)[C@@H](N)CCCNC(N)=N)C(O)=O,3.04,10:34:20:25,carboxylic_acid:carboxylic_acid:amine_primary:amine_primary,L-Arginyl-L-lysyl-L-aspartyl-L-valine,[H₄L]/[H₃L][H],0.1,25.0,10:34:20:25,carboxylic_acid:carboxylic_acid:amine_primary:amine_primary,10(carboxylic_acid) > 34(carboxylic_acid) > 20(amine_primary) > 25(amine_primary),carboxylic_acid,carboxylic_acid(1.5~5.0); carboxylic_acid(1.5~5.0); amine_primary(9.0~11.0); amine_primary(9.0~11.0)
NCC(=O)NCC(=O)NCC(=O)N[C@@H](Cc1c[nH]cn1)C(O)=O,7.99,21:0:4,carboxylic_acid:amine_primary:amine_secondary,Glycylglycylglycyl-L-histidine,[HL]/[L][H],0.1,25.0,21:0:4,carboxylic_acid:amine_primary:amine_secondary,21(carboxylic_acid) > 0(amine_primary) > 4(amine_secondary),amine_primary,carboxylic_acid(1.5~5.0); amine_primary(9.0~11.0); amine_secondary(9.5~11.5)
NCC(=O)NCC(=O)NCC(=O)N[C@@H](Cc1c[nH]cn1)C(O)=O,6.73,21:0:4,carboxylic_acid:amine_primary:amine_secondary,Glycylglycylglycyl-L-histidine,[H₂L]/[HL][H],0.1,25.0,21:0:4,carboxylic_acid:amine_primary:amine_secondary,21(carboxylic_acid) > 0(amine_primary) > 4(amine_secondary),amine_primary,carboxylic_acid(1.5~5.0); amine_primary(9.0~11.0); amine_secondary(9.5~11.5)
NCC(=O)NCC(=O)NCC(=O)N[C@@H](Cc1c[nH]cn1)C(O)=O,2.9,21:0:4,carboxylic_acid:amine_primary:amine_secondary,Glycylglycylglycyl-L-histidine,[H₃L]/[H₂L][H],0.1,25.0,21:0:4,carboxylic_acid:amine_primary:amine_secondary,21(carboxylic_acid) > 0(amine_primary) > 4(amine_secondary),carboxylic_acid,carboxylic_acid(1.5~5.0); amine_primary(9.0~11.0); amine_secondary(9.5~11.5)
C[C@H](N)C(=O)NCC(=O)NCC(=O)N[C@@H](Cc1c[nH]cn1)C(O)=O,8.14,22:2:5,carboxylic_acid:amine_primary:amine_secondary,L-Alanylglycylglycyl-L-histidine,[HL]/[L][H],0.1,25.0,22:2:5,carboxylic_acid:amine_primary:amine_secondary,22(carboxylic_acid) > 2(amine_primary) > 5(amine_secondary),amine_primary,carboxylic_acid(1.5~5.0); amine_primary(9.0~11.0); amine_secondary(9.5~11.5)
C[C@H](N)C(=O)NCC(=O)NCC(=O)N[C@@H](Cc1c[nH]cn1)C(O)=O,6.89,22:2:5,carboxylic_acid:amine_primary:amine_secondary,L-Alanylglycylglycyl-L-histidine,[H₂L]/[HL][H],0.1,25.0,22:2:5,carboxylic_acid:amine_primary:amine_secondary,22(carboxylic_acid) > 2(amine_primary) > 5(amine_secondary),amine_primary,carboxylic_acid(1.5~5.0); amine_primary(9.0~11.0); amine_secondary(9.5~11.5)
C[C@H](N)C(=O)NCC(=O)NCC(=O)N[C@@H](Cc1c[nH]cn1)C(O)=O,2.62,22:2:5,carboxylic_acid:amine_primary:amine_secondary,L-Alanylglycylglycyl-L-histidine,[H₃L]/[H₂L][H],0.1,25.0,22:2:5,carboxylic_acid:amine_primary:amine_secondary,22(carboxylic_acid) > 2(amine_primary) > 5(amine_secondary),carboxylic_acid,carboxylic_acid(1.5~5.0); amine_primary(9.0~11.0); amine_secondary(9.5~11.5)
C[C@H](NC(=O)[C@H](Cc1c[nH]cn1)NC(=O)CNC(=O)CN)C(O)=O,7.87,22:20:2,carboxylic_acid:amine_primary:amine_secondary,Glycylglycyl-L-histidyl-L-alanine,[HL]/[L][H],0.1,25.0,22:20:2,carboxylic_acid:amine_primary:amine_secondary,22(carboxylic_acid) > 20(amine_primary) > 2(amine_secondary),amine_primary,carboxylic_acid(1.5~5.0); amine_primary(9.0~11.0); amine_secondary(9.5~11.5)
C[C@H](NC(=O)[C@H](Cc1c[nH]cn1)NC(=O)CNC(=O)CN)C(O)=O,6.63,22:20:2,carboxylic_acid:amine_primary:amine_secondary,Glycylglycyl-L-histidyl-L-alanine,[H₂L]/[HL][H],0.1,25.0,22:20:2,carboxylic_acid:amine_primary:amine_secondary,22(carboxylic_acid) > 20(amine_primary) > 2(amine_secondary),amine_primary,carboxylic_acid(1.5~5.0); amine_primary(9.0~11.0); amine_secondary(9.5~11.5)
C[C@H](NC(=O)[C@H](Cc1c[nH]cn1)NC(=O)CNC(=O)CN)C(O)=O,3.04,22:20:2,carboxylic_acid:amine_primary:amine_secondary,Glycylglycyl-L-histidyl-L-alanine,[H₃L]/[H₂L][H],0.1,25.0,22:20:2,carboxylic_acid:amine_primary:amine_secondary,22(carboxylic_acid) > 20(amine_primary) > 2(amine_secondary),carboxylic_acid,carboxylic_acid(1.5~5.0); amine_primary(9.0~11.0); amine_secondary(9.5~11.5)
NCC(=O)N[C@@H](Cc1c[nH]cn1)C(=O)NCC(=O)N[C@@H](Cc2c[nH]cn2)C(O)=O,8.0,27:0:4:9,carboxylic_acid:amine_primary:amine_secondary:amine_secondary,Glycyl-L-histidylglycyl-L-histidine,[HL]/[L][H],0.1,25.0,27:0:4:9,carboxylic_acid:amine_primary:amine_secondary:amine_secondary,27(carboxylic_acid) > 0(amine_primary) > 4(amine_secondary) > 9(amine_secondary),amine_primary,carboxylic_acid(1.5~5.0); amine_primary(9.0~11.0); amine_secondary(9.5~11.5); amine_secondary(9.5~11.5)
NCC(=O)N[C@@H](Cc1c[nH]cn1)C(=O)NCC(=O)N[C@@H](Cc2c[nH]cn2)C(O)=O,6.95,27:0:4:9,carboxylic_acid:amine_primary:amine_secondary:amine_secondary,Glycyl-L-histidylglycyl-L-histidine,[H₂L]/[HL][H],0.1,25.0,27:0:4:9,carboxylic_acid:amine_primary:amine_secondary:amine_secondary,27(carboxylic_acid) > 0(amine_primary) > 4(amine_secondary) > 9(amine_secondary),amine_primary,carboxylic_acid(1.5~5.0); amine_primary(9.0~11.0); amine_secondary(9.5~11.5); amine_secondary(9.5~11.5)
NCC(=O)N[C@@H](Cc1c[nH]cn1)C(=O)NCC(=O)N[C@@H](Cc2c[nH]cn2)C(O)=O,6.0,27:0:4:9,carboxylic_acid:amine_primary:amine_secondary:amine_secondary,Glycyl-L-histidylglycyl-L-histidine,[H₃L]/[H₂L][H],0.1,25.0,27:0:4:9,carboxylic_acid:amine_primary:amine_secondary:amine_secondary,27(carboxylic_acid) > 0(amine_primary) > 4(amine_secondary) > 9(amine_secondary),carboxylic_acid,carboxylic_acid(1.5~5.0); amine_primary(9.0~11.0); amine_secondary(9.5~11.5); amine_secondary(9.5~11.5)
NCC(=O)N[C@@H](Cc1c[nH]cn1)C(=O)NCC(=O)N[C@@H](Cc2c[nH]cn2)C(O)=O,2.57,27:0:4:9,carboxylic_acid:amine_primary:amine_secondary:amine_secondary,Glycyl-L-histidylglycyl-L-histidine,[H₄L]/[H₃L][H],0.1,25.0,27:0:4:9,carboxylic_acid:amine_primary:amine_secondary:amine_secondary,27(carboxylic_acid) > 0(amine_primary) > 4(amine_secondary) > 9(amine_secondary),carboxylic_acid,carboxylic_acid(1.5~5.0); amine_primary(9.0~11.0); amine_secondary(9.5~11.5); amine_secondary(9.5~11.5)
C[C@H](NC(=O)OC(C)(C)C)C(=O)NCC(=O)NCC(=O)N[C@@H](Cc1c[nH]cn1)C(O)=O,7.19,29:2,carboxylic_acid:amine_secondary,N-(2-Methyl-2-propyloxycarbonyl)-L-alanylglycylglycyl-L-histidine,[HL]/[L][H],0.1,25.0,29:2,carboxylic_acid:amine_secondary,29(carboxylic_acid) > 2(amine_secondary),amine_secondary,carboxylic_acid(1.5~5.0); amine_secondary(9.5~11.5)
C[C@H](NC(=O)OC(C)(C)C)C(=O)NCC(=O)NCC(=O)N[C@@H](Cc1c[nH]cn1)C(O)=O,2.83,29:2,carboxylic_acid:amine_secondary,N-(2-Methyl-2-propyloxycarbonyl)-L-alanylglycylglycyl-L-histidine,[H₂L]/[HL][H],0.1,25.0,29:2,carboxylic_acid:amine_secondary,29(carboxylic_acid) > 2(amine_secondary),carboxylic_acid,carboxylic_acid(1.5~5.0); amine_secondary(9.5~11.5)
COC(=O)[C@H](Cc1c[nH]cn1)NC(=O)CNC(=O)CNC(=O)[C@H](C)N,8.05,24:8,amine_primary:amine_secondary,L-Alanylglycylglycyl-L-histidine methylester,[HL]/[L][H],0.1,25.0,24:8,amine_primary:amine_secondary,24(amine_primary) > 8(amine_secondary),amine_primary,amine_primary(9.0~11.0); amine_secondary(9.5~11.5)
COC(=O)[C@H](Cc1c[nH]cn1)NC(=O)CNC(=O)CNC(=O)[C@H](C)N,6.62,24:8,amine_primary:amine_secondary,L-Alanylglycylglycyl-L-histidine methylester,[H₂L]/[HL][H],0.1,25.0,24:8,amine_primary:amine_secondary,24(amine_primary) > 8(amine_secondary),amine_primary,amine_primary(9.0~11.0); amine_secondary(9.5~11.5)
C[C@H](N)C(=O)NCC(=O)N1CCC[C@H]1C(=O)N[C@@H](Cc2c[nH]cn2)C(O)=O,8.16,25:2:5,carboxylic_acid:amine_primary:amine_secondary,L-Alanylglycyl-L-prolyl-L-histidine,[HL]/[L][H],0.1,25.0,25:2:5,carboxylic_acid:amine_primary:amine_secondary,25(carboxylic_acid) > 2(amine_primary) > 5(amine_secondary),amine_primary,carboxylic_acid(1.5~5.0); amine_primary(9.0~11.0); amine_secondary(9.5~11.5)
C[C@H](N)C(=O)NCC(=O)N1CCC[C@H]1C(=O)N[C@@H](Cc2c[nH]cn2)C(O)=O,6.8,25:2:5,carboxylic_acid:amine_primary:amine_secondary,L-Alanylglycyl-L-prolyl-L-histidine,[H₂L]/[HL][H],0.1,25.0,25:2:5,carboxylic_acid:amine_primary:amine_secondary,25(carboxylic_acid) > 2(amine_primary) > 5(amine_secondary),amine_primary,carboxylic_acid(1.5~5.0); amine_primary(9.0~11.0); amine_secondary(9.5~11.5)
C[C@H](N)C(=O)NCC(=O)N1CCC[C@H]1C(=O)N[C@@H](Cc2c[nH]cn2)C(O)=O,2.63,25:2:5,carboxylic_acid:amine_primary:amine_secondary,L-Alanylglycyl-L-prolyl-L-histidine,[H₃L]/[H₂L][H],0.1,25.0,25:2:5,carboxylic_acid:amine_primary:amine_secondary,25(carboxylic_acid) > 2(amine_primary) > 5(amine_secondary),carboxylic_acid,carboxylic_acid(1.5~5.0); amine_primary(9.0~11.0); amine_secondary(9.5~11.5)
NCC(=O)NCC(=O)NCC(=O)NCC(=O)NCC(O)=O,7.85,19:0,carboxylic_acid:amine_primary,Glycylglycylglycylglycylglycine (Pentaglycine),[HL]/[L][H],0.1,25.0,19:0,carboxylic_acid:amine_primary,19(carboxylic_acid) > 0(amine_primary),amine_primary,carboxylic_acid(1.5~5.0); amine_primary(9.0~11.0)
NCC(=O)NCC(=O)NCC(=O)NCC(=O)NCC(O)=O,7.86,19:0,carboxylic_acid:amine_primary,Glycylglycylglycylglycylglycine (Pentaglycine),[HL]/[L][H],1.0,25.0,19:0,carboxylic_acid:amine_primary,19(carboxylic_acid) > 0(amine_primary),amine_primary,carboxylic_acid(1.5~5.0); amine_primary(9.0~11.0)
NCC(=O)NCC(=O)NCC(=O)NCC(=O)NCC(O)=O,3.27,19:0,carboxylic_acid:amine_primary,Glycylglycylglycylglycylglycine (Pentaglycine),[H₂L]/[HL][H],0.1,25.0,19:0,carboxylic_acid:amine_primary,19(carboxylic_acid) > 0(amine_primary),carboxylic_acid,carboxylic_acid(1.5~5.0); amine_primary(9.0~11.0)
NCC(=O)NCC(=O)NCC(=O)NCC(=O)NCC(O)=O,3.05,19:0,carboxylic_acid:amine_primary,Glycylglycylglycylglycylglycine (Pentaglycine),[H₂L]/[HL][H],1.0,25.0,19:0,carboxylic_acid:amine_primary,19(carboxylic_acid) > 0(amine_primary),carboxylic_acid,carboxylic_acid(1.5~5.0); amine_primary(9.0~11.0)
C[C@H](NC(=O)CNC(=O)CNC(=O)CNC(=O)CN)C(O)=O,7.86,20:18,carboxylic_acid:amine_primary,Glycylglycylglycylglycyl-L-alanine,[HL]/[L][H],0.1,25.0,20:18,carboxylic_acid:amine_primary,20(carboxylic_acid) > 18(amine_primary),amine_primary,carboxylic_acid(1.5~5.0); amine_primary(9.0~11.0)
C[C@H](NC(=O)CNC(=O)CNC(=O)CNC(=O)CN)C(O)=O,3.37,20:18,carboxylic_acid:amine_primary,Glycylglycylglycylglycyl-L-alanine,[H₂L]/[HL][H],0.1,25.0,20:18,carboxylic_acid:amine_primary,20(carboxylic_acid) > 18(amine_primary),carboxylic_acid,carboxylic_acid(1.5~5.0); amine_primary(9.0~11.0)
C[C@H](N)C(=O)NCC(=O)NCC(=O)NCC(=O)NCC(O)=O,7.86,20:2,carboxylic_acid:amine_primary,L-Alanylglycylglycylglycylglycine,[HL]/[L][H],0.1,25.0,20:2,carboxylic_acid:amine_primary,20(carboxylic_acid) > 2(amine_primary),amine_primary,carboxylic_acid(1.5~5.0); amine_primary(9.0~11.0)
C[C@H](N)C(=O)NCC(=O)NCC(=O)NCC(=O)NCC(O)=O,3.38,20:2,carboxylic_acid:amine_primary,L-Alanylglycylglycylglycylglycine,[H₂L]/[HL][H],0.1,25.0,20:2,carboxylic_acid:amine_primary,20(carboxylic_acid) > 2(amine_primary),carboxylic_acid,carboxylic_acid(1.5~5.0); amine_primary(9.0~11.0)
NCC(=O)N1CCC[C@H]1C(=O)NCC(=O)N2CCC[C@H]2C(=O)NCC(O)=O,8.36,25:0,carboxylic_acid:amine_primary,Glycyl-L-prolylglycyl-L-prolylglycine,[HL]/[L][H],0.1,25.0,25:0,carboxylic_acid:amine_primary,25(carboxylic_acid) > 0(amine_primary),amine_primary,carboxylic_acid(1.5~5.0); amine_primary(9.0~11.0)
NCC(=O)N1CCC[C@H]1C(=O)NCC(=O)N2CCC[C@H]2C(=O)NCC(O)=O,3.31,25:0,carboxylic_acid:amine_primary,Glycyl-L-prolylglycyl-L-prolylglycine,[H₂L]/[HL][H],0.1,25.0,25:0,carboxylic_acid:amine_primary,25(carboxylic_acid) > 0(amine_primary),carboxylic_acid,carboxylic_acid(1.5~5.0); amine_primary(9.0~11.0)
NCC(=O)N1CCC[C@H]1C(=O)NCC(=O)N2CCC[C@H]2C(=O)N[C@@H](CCC(O)=O)C(O)=O,8.53,27:30:0,carboxylic_acid:carboxylic_acid:amine_primary,Glycyl-L-prolylglycyl-L-prolylglutamic acid,[HL]/[L][H],0.1,25.0,27:30:0,carboxylic_acid:carboxylic_acid:amine_primary,27(carboxylic_acid) > 30(carboxylic_acid) > 0(amine_primary),amine_primary,carboxylic_acid(1.5~5.0); carboxylic_acid(1.5~5.0); amine_primary(9.0~11.0)