SMILES,pKa,Dissociable_Atoms,Functional_Group,Name,Equilibrium,Ionic,Temperature,Dissociable_Atoms_Ordered,Functional_Group_Ordered,Dissociation_Order,Dissociating_Group,Functional_Group_pKa_Ranges
CC(CC(C)(C)NCCNC(C)(C)CC(C)=NO)=NO,6.35,6:9,amine_secondary:amine_secondary,"Ethylenebis[imino-4-(4-methylpentan-2-one oxime)] (4,4,9,9-Tetramethyl-5,8-diazadodecane-2,11-dione dioxime)",[H₂L]/[HL][H],0.1,25.0,6:9,amine_secondary:amine_secondary,6(amine_secondary) > 9(amine_secondary),amine_secondary,amine_secondary(9.5~11.5); amine_secondary(9.5~11.5)
CC(CC(C)(C)NCCNC(C)(C)CC(C)=NO)=NO,5.89,6:9,amine_secondary:amine_secondary,"Ethylenebis[imino-4-(4-methylpentan-2-one oxime)] (4,4,9,9-Tetramethyl-5,8-diazadodecane-2,11-dione dioxime)",[H₂L]/[HL][H],0.0,25.0,6:9,amine_secondary:amine_secondary,6(amine_secondary) > 9(amine_secondary),amine_secondary,amine_secondary(9.5~11.5); amine_secondary(9.5~11.5)
NCCCCNCCCN,10.85,0:5:9,amine_primary:amine_secondary:amine_primary,"1,5,10-Triazadecane (3,4-tri)(Spermidine)",[HL]/[L][H],0.1,25.0,0:9:5,amine_primary:amine_primary:amine_secondary,0(amine_primary) > 9(amine_primary) > 5(amine_secondary),amine_secondary,amine_primary(9.0~11.0); amine_secondary(9.5~11.5); amine_primary(9.0~11.0)
NCCCCNCCCN,9.83,0:5:9,amine_primary:amine_secondary:amine_primary,"1,5,10-Triazadecane (3,4-tri)(Spermidine)",[H₂L]/[HL][H],0.1,25.0,0:9:5,amine_primary:amine_primary:amine_secondary,0(amine_primary) > 9(amine_primary) > 5(amine_secondary),amine_primary,amine_primary(9.0~11.0); amine_secondary(9.5~11.5); amine_primary(9.0~11.0)
NCCCCNCCCN,8.4,0:5:9,amine_primary:amine_secondary:amine_primary,"1,5,10-Triazadecane (3,4-tri)(Spermidine)",[H₃L]/[H₂L][H],0.1,25.0,0:9:5,amine_primary:amine_primary:amine_secondary,0(amine_primary) > 9(amine_primary) > 5(amine_secondary),amine_primary,amine_primary(9.0~11.0); amine_secondary(9.5~11.5); amine_primary(9.0~11.0)
CNCCCNCCCN,10.68,1:5:9,amine_secondary:amine_secondary:amine_primary,"1,5,9-Triazadecane",[HL]/[L][H],0.1,25.0,9:1:5,amine_primary:amine_secondary:amine_secondary,9(amine_primary) > 1(amine_secondary) > 5(amine_secondary),amine_secondary,amine_secondary(9.5~11.5); amine_secondary(9.5~11.5); amine_primary(9.0~11.0)
CNCCCNCCCN,9.69,1:5:9,amine_secondary:amine_secondary:amine_primary,"1,5,9-Triazadecane",[H₂L]/[HL][H],0.1,25.0,9:1:5,amine_primary:amine_secondary:amine_secondary,9(amine_primary) > 1(amine_secondary) > 5(amine_secondary),amine_primary,amine_secondary(9.5~11.5); amine_secondary(9.5~11.5); amine_primary(9.0~11.0)
CNCCCNCCCN,7.03,1:5:9,amine_secondary:amine_secondary:amine_primary,"1,5,9-Triazadecane",[H₃L]/[H₂L][H],0.1,25.0,9:1:5,amine_primary:amine_secondary:amine_secondary,9(amine_primary) > 1(amine_secondary) > 5(amine_secondary),amine_primary,amine_secondary(9.5~11.5); amine_secondary(9.5~11.5); amine_primary(9.0~11.0)
CCNCCNCCNCC,10.51,2:5:8,amine_secondary:amine_secondary:amine_secondary,"3,6,9-Triazaundecane (N,N''-Diethyldiethylenetriamine)",[HL]/[L][H],0.5,25.0,2:5:8,amine_secondary:amine_secondary:amine_secondary,2(amine_secondary) > 5(amine_secondary) > 8(amine_secondary),amine_secondary,amine_secondary(9.5~11.5); amine_secondary(9.5~11.5); amine_secondary(9.5~11.5)
CCNCCNCCNCC,9.85,2:5:8,amine_secondary:amine_secondary:amine_secondary,"3,6,9-Triazaundecane (N,N''-Diethyldiethylenetriamine)",[H₂L]/[HL][H],0.5,25.0,2:5:8,amine_secondary:amine_secondary:amine_secondary,2(amine_secondary) > 5(amine_secondary) > 8(amine_secondary),amine_secondary,amine_secondary(9.5~11.5); amine_secondary(9.5~11.5); amine_secondary(9.5~11.5)
CCNCCNCCNCC,4.31,2:5:8,amine_secondary:amine_secondary:amine_secondary,"3,6,9-Triazaundecane (N,N''-Diethyldiethylenetriamine)",[H₃L]/[H₂L][H],0.5,25.0,2:5:8,amine_secondary:amine_secondary:amine_secondary,2(amine_secondary) > 5(amine_secondary) > 8(amine_secondary),amine_secondary,amine_secondary(9.5~11.5); amine_secondary(9.5~11.5); amine_secondary(9.5~11.5)
NCCNCCCNCCN,10.08,0:3:7:10,amine_primary:amine_secondary:amine_secondary:amine_primary,"1,4,8,11-Tetraazaundecane (2,3,2-tet)",[HL]/[L][H],0.1,25.0,0:10:3:7,amine_primary:amine_primary:amine_secondary:amine_secondary,0(amine_primary) > 10(amine_primary) > 3(amine_secondary) > 7(amine_secondary),amine_primary,amine_primary(9.0~11.0); amine_secondary(9.5~11.5); amine_secondary(9.5~11.5); amine_primary(9.0~11.0)
NCCNCCCNCCN,10.25,0:3:7:10,amine_primary:amine_secondary:amine_secondary:amine_primary,"1,4,8,11-Tetraazaundecane (2,3,2-tet)",[HL]/[L][H],0.5,25.0,0:10:3:7,amine_primary:amine_primary:amine_secondary:amine_secondary,0(amine_primary) > 10(amine_primary) > 3(amine_secondary) > 7(amine_secondary),amine_primary,amine_primary(9.0~11.0); amine_secondary(9.5~11.5); amine_secondary(9.5~11.5); amine_primary(9.0~11.0)
NCCNCCCNCCN,10.28,0:3:7:10,amine_primary:amine_secondary:amine_secondary:amine_primary,"1,4,8,11-Tetraazaundecane (2,3,2-tet)",[HL]/[L][H],1.0,25.0,0:10:3:7,amine_primary:amine_primary:amine_secondary:amine_secondary,0(amine_primary) > 10(amine_primary) > 3(amine_secondary) > 7(amine_secondary),amine_secondary,amine_primary(9.0~11.0); amine_secondary(9.5~11.5); amine_secondary(9.5~11.5); amine_primary(9.0~11.0)
NCCNCCCNCCN,9.26,0:3:7:10,amine_primary:amine_secondary:amine_secondary:amine_primary,"1,4,8,11-Tetraazaundecane (2,3,2-tet)",[H₂L]/[HL][H],0.1,25.0,0:10:3:7,amine_primary:amine_primary:amine_secondary:amine_secondary,0(amine_primary) > 10(amine_primary) > 3(amine_secondary) > 7(amine_secondary),amine_primary,amine_primary(9.0~11.0); amine_secondary(9.5~11.5); amine_secondary(9.5~11.5); amine_primary(9.0~11.0)
NCCNCCCNCCN,9.5,0:3:7:10,amine_primary:amine_secondary:amine_secondary:amine_primary,"1,4,8,11-Tetraazaundecane (2,3,2-tet)",[H₂L]/[HL][H],0.5,25.0,0:10:3:7,amine_primary:amine_primary:amine_secondary:amine_secondary,0(amine_primary) > 10(amine_primary) > 3(amine_secondary) > 7(amine_secondary),amine_primary,amine_primary(9.0~11.0); amine_secondary(9.5~11.5); amine_secondary(9.5~11.5); amine_primary(9.0~11.0)
NCCNCCCNCCN,9.58,0:3:7:10,amine_primary:amine_secondary:amine_secondary:amine_primary,"1,4,8,11-Tetraazaundecane (2,3,2-tet)",[H₂L]/[HL][H],1.0,25.0,0:10:3:7,amine_primary:amine_primary:amine_secondary:amine_secondary,0(amine_primary) > 10(amine_primary) > 3(amine_secondary) > 7(amine_secondary),amine_primary,amine_primary(9.0~11.0); amine_secondary(9.5~11.5); amine_secondary(9.5~11.5); amine_primary(9.0~11.0)
NCCNCCCNCCN,6.88,0:3:7:10,amine_primary:amine_secondary:amine_secondary:amine_primary,"1,4,8,11-Tetraazaundecane (2,3,2-tet)",[H₃L]/[H₂L][H],0.1,25.0,0:10:3:7,amine_primary:amine_primary:amine_secondary:amine_secondary,0(amine_primary) > 10(amine_primary) > 3(amine_secondary) > 7(amine_secondary),amine_primary,amine_primary(9.0~11.0); amine_secondary(9.5~11.5); amine_secondary(9.5~11.5); amine_primary(9.0~11.0)
NCCNCCCNCCN,7.28,0:3:7:10,amine_primary:amine_secondary:amine_secondary:amine_primary,"1,4,8,11-Tetraazaundecane (2,3,2-tet)",[H₃L]/[H₂L][H],0.5,25.0,0:10:3:7,amine_primary:amine_primary:amine_secondary:amine_secondary,0(amine_primary) > 10(amine_primary) > 3(amine_secondary) > 7(amine_secondary),amine_primary,amine_primary(9.0~11.0); amine_secondary(9.5~11.5); amine_secondary(9.5~11.5); amine_primary(9.0~11.0)
NCCNCCCNCCN,7.39,0:3:7:10,amine_primary:amine_secondary:amine_secondary:amine_primary,"1,4,8,11-Tetraazaundecane (2,3,2-tet)",[H₃L]/[H₂L][H],1.0,25.0,0:10:3:7,amine_primary:amine_primary:amine_secondary:amine_secondary,0(amine_primary) > 10(amine_primary) > 3(amine_secondary) > 7(amine_secondary),amine_primary,amine_primary(9.0~11.0); amine_secondary(9.5~11.5); amine_secondary(9.5~11.5); amine_primary(9.0~11.0)
NCCNCCCNCCN,5.45,0:3:7:10,amine_primary:amine_secondary:amine_secondary:amine_primary,"1,4,8,11-Tetraazaundecane (2,3,2-tet)",[H₄L]/[H₃L][H],0.1,25.0,0:10:3:7,amine_primary:amine_primary:amine_secondary:amine_secondary,0(amine_primary) > 10(amine_primary) > 3(amine_secondary) > 7(amine_secondary),amine_primary,amine_primary(9.0~11.0); amine_secondary(9.5~11.5); amine_secondary(9.5~11.5); amine_primary(9.0~11.0)
NCCNCCCNCCN,6.02,0:3:7:10,amine_primary:amine_secondary:amine_secondary:amine_primary,"1,4,8,11-Tetraazaundecane (2,3,2-tet)",[H₄L]/[H₃L][H],0.5,25.0,0:10:3:7,amine_primary:amine_primary:amine_secondary:amine_secondary,0(amine_primary) > 10(amine_primary) > 3(amine_secondary) > 7(amine_secondary),amine_primary,amine_primary(9.0~11.0); amine_secondary(9.5~11.5); amine_secondary(9.5~11.5); amine_primary(9.0~11.0)
NCCNCCCNCCN,6.08,0:3:7:10,amine_primary:amine_secondary:amine_secondary:amine_primary,"1,4,8,11-Tetraazaundecane (2,3,2-tet)",[H₄L]/[H₃L][H],1.0,25.0,0:10:3:7,amine_primary:amine_primary:amine_secondary:amine_secondary,0(amine_primary) > 10(amine_primary) > 3(amine_secondary) > 7(amine_secondary),amine_primary,amine_primary(9.0~11.0); amine_secondary(9.5~11.5); amine_secondary(9.5~11.5); amine_primary(9.0~11.0)
CC(N)CC(C)(C)NCCNC(C)(C)CC(C)N,11.09,2:7:10:17,amine_primary:amine_secondary:amine_secondary:amine_primary,"2,4,4,9,9,11-Hexamethyl-1,5,8,12-tetraazadodecane (4,4,9,9-Tetramethyl-5,8-diazadodecane-2,11-diamine)",[HL]/[L][H],0.1,25.0,2:17:7:10,amine_primary:amine_primary:amine_secondary:amine_secondary,2(amine_primary) > 17(amine_primary) > 7(amine_secondary) > 10(amine_secondary),amine_secondary,amine_primary(9.0~11.0); amine_secondary(9.5~11.5); amine_secondary(9.5~11.5); amine_primary(9.0~11.0)
CC(N)CC(C)(C)NCCNC(C)(C)CC(C)N,10.06,2:7:10:17,amine_primary:amine_secondary:amine_secondary:amine_primary,"2,4,4,9,9,11-Hexamethyl-1,5,8,12-tetraazadodecane (4,4,9,9-Tetramethyl-5,8-diazadodecane-2,11-diamine)",[H₂L]/[HL][H],0.1,25.0,2:17:7:10,amine_primary:amine_primary:amine_secondary:amine_secondary,2(amine_primary) > 17(amine_primary) > 7(amine_secondary) > 10(amine_secondary),amine_primary,amine_primary(9.0~11.0); amine_secondary(9.5~11.5); amine_secondary(9.5~11.5); amine_primary(9.0~11.0)
CC(N)CC(C)(C)NCCNC(C)(C)CC(C)N,7.61,2:7:10:17,amine_primary:amine_secondary:amine_secondary:amine_primary,"2,4,4,9,9,11-Hexamethyl-1,5,8,12-tetraazadodecane (4,4,9,9-Tetramethyl-5,8-diazadodecane-2,11-diamine)",[H₃L]/[H₂L][H],0.1,25.0,2:17:7:10,amine_primary:amine_primary:amine_secondary:amine_secondary,2(amine_primary) > 17(amine_primary) > 7(amine_secondary) > 10(amine_secondary),amine_primary,amine_primary(9.0~11.0); amine_secondary(9.5~11.5); amine_secondary(9.5~11.5); amine_primary(9.0~11.0)
CC(N)CC(C)(C)NCCNC(C)(C)CC(C)N,4.9,2:7:10:17,amine_primary:amine_secondary:amine_secondary:amine_primary,"2,4,4,9,9,11-Hexamethyl-1,5,8,12-tetraazadodecane (4,4,9,9-Tetramethyl-5,8-diazadodecane-2,11-diamine)",[H₄L]/[H₃L][H],0.1,25.0,2:17:7:10,amine_primary:amine_primary:amine_secondary:amine_secondary,2(amine_primary) > 17(amine_primary) > 7(amine_secondary) > 10(amine_secondary),amine_primary,amine_primary(9.0~11.0); amine_secondary(9.5~11.5); amine_secondary(9.5~11.5); amine_primary(9.0~11.0)
NCCCNCCCCNCCCN,10.82,0:4:9:13,amine_primary:amine_secondary:amine_secondary:amine_primary,"1,5,10,14-Tetraazatetradecane (3,4,3-tet)(Spermine)",[HL]/[L][H],0.1,25.0,0:13:4:9,amine_primary:amine_primary:amine_secondary:amine_secondary,0(amine_primary) > 13(amine_primary) > 4(amine_secondary) > 9(amine_secondary),amine_secondary,amine_primary(9.0~11.0); amine_secondary(9.5~11.5); amine_secondary(9.5~11.5); amine_primary(9.0~11.0)
NCCCNCCCCNCCCN,9.99,0:4:9:13,amine_primary:amine_secondary:amine_secondary:amine_primary,"1,5,10,14-Tetraazatetradecane (3,4,3-tet)(Spermine)",[H₂L]/[HL][H],0.1,25.0,0:13:4:9,amine_primary:amine_primary:amine_secondary:amine_secondary,0(amine_primary) > 13(amine_primary) > 4(amine_secondary) > 9(amine_secondary),amine_primary,amine_primary(9.0~11.0); amine_secondary(9.5~11.5); amine_secondary(9.5~11.5); amine_primary(9.0~11.0)
NCCCNCCCCNCCCN,8.85,0:4:9:13,amine_primary:amine_secondary:amine_secondary:amine_primary,"1,5,10,14-Tetraazatetradecane (3,4,3-tet)(Spermine)",[H₃L]/[H₂L][H],0.1,25.0,0:13:4:9,amine_primary:amine_primary:amine_secondary:amine_secondary,0(amine_primary) > 13(amine_primary) > 4(amine_secondary) > 9(amine_secondary),amine_primary,amine_primary(9.0~11.0); amine_secondary(9.5~11.5); amine_secondary(9.5~11.5); amine_primary(9.0~11.0)
NCCCNCCCCNCCCN,7.91,0:4:9:13,amine_primary:amine_secondary:amine_secondary:amine_primary,"1,5,10,14-Tetraazatetradecane (3,4,3-tet)(Spermine)",[H₄L]/[H₃L][H],0.1,25.0,0:13:4:9,amine_primary:amine_primary:amine_secondary:amine_secondary,0(amine_primary) > 13(amine_primary) > 4(amine_secondary) > 9(amine_secondary),amine_primary,amine_primary(9.0~11.0); amine_secondary(9.5~11.5); amine_secondary(9.5~11.5); amine_primary(9.0~11.0)
NCCCCNCCCNCCCN,11.03,0:5:9:13,amine_primary:amine_secondary:amine_secondary:amine_primary,"1,5,9,14-Tetraazatetradecane (3,3,4-tet)(Thermospermine)",[HL]/[L][H],0.1,27.0,0:13:5:9,amine_primary:amine_primary:amine_secondary:amine_secondary,0(amine_primary) > 13(amine_primary) > 5(amine_secondary) > 9(amine_secondary),amine_secondary,amine_primary(9.0~11.0); amine_secondary(9.5~11.5); amine_secondary(9.5~11.5); amine_primary(9.0~11.0)
NCCCCNCCCNCCCN,10.38,0:5:9:13,amine_primary:amine_secondary:amine_secondary:amine_primary,"1,5,9,14-Tetraazatetradecane (3,3,4-tet)(Thermospermine)",[H₂L]/[HL][H],0.1,27.0,0:13:5:9,amine_primary:amine_primary:amine_secondary:amine_secondary,0(amine_primary) > 13(amine_primary) > 5(amine_secondary) > 9(amine_secondary),amine_secondary,amine_primary(9.0~11.0); amine_secondary(9.5~11.5); amine_secondary(9.5~11.5); amine_primary(9.0~11.0)
NCCCCNCCCNCCCN,9.12,0:5:9:13,amine_primary:amine_secondary:amine_secondary:amine_primary,"1,5,9,14-Tetraazatetradecane (3,3,4-tet)(Thermospermine)",[H₃L]/[H₂L][H],0.1,27.0,0:13:5:9,amine_primary:amine_primary:amine_secondary:amine_secondary,0(amine_primary) > 13(amine_primary) > 5(amine_secondary) > 9(amine_secondary),amine_primary,amine_primary(9.0~11.0); amine_secondary(9.5~11.5); amine_secondary(9.5~11.5); amine_primary(9.0~11.0)
NCCCCNCCCNCCCN,7.47,0:5:9:13,amine_primary:amine_secondary:amine_secondary:amine_primary,"1,5,9,14-Tetraazatetradecane (3,3,4-tet)(Thermospermine)",[H₄L]/[H₃L][H],0.1,27.0,0:13:5:9,amine_primary:amine_primary:amine_secondary:amine_secondary,0(amine_primary) > 13(amine_primary) > 5(amine_secondary) > 9(amine_secondary),amine_primary,amine_primary(9.0~11.0); amine_secondary(9.5~11.5); amine_secondary(9.5~11.5); amine_primary(9.0~11.0)
CNCCNCCNCCNC,10.75,1:4:7:10,amine_secondary:amine_secondary:amine_secondary:amine_secondary,"2,5,8,11-Tetraazadodecane",[HL]/[L][H],0.5,25.0,1:4:7:10,amine_secondary:amine_secondary:amine_secondary:amine_secondary,1(amine_secondary) > 4(amine_secondary) > 7(amine_secondary) > 10(amine_secondary),amine_secondary,amine_secondary(9.5~11.5); amine_secondary(9.5~11.5); amine_secondary(9.5~11.5); amine_secondary(9.5~11.5)
CNCCNCCNCCNC,9.68,1:4:7:10,amine_secondary:amine_secondary:amine_secondary:amine_secondary,"2,5,8,11-Tetraazadodecane",[H₂L]/[HL][H],0.5,25.0,1:4:7:10,amine_secondary:amine_secondary:amine_secondary:amine_secondary,1(amine_secondary) > 4(amine_secondary) > 7(amine_secondary) > 10(amine_secondary),amine_secondary,amine_secondary(9.5~11.5); amine_secondary(9.5~11.5); amine_secondary(9.5~11.5); amine_secondary(9.5~11.5)
CNCCNCCNCCNC,7.59,1:4:7:10,amine_secondary:amine_secondary:amine_secondary:amine_secondary,"2,5,8,11-Tetraazadodecane",[H₃L]/[H₂L][H],0.5,25.0,1:4:7:10,amine_secondary:amine_secondary:amine_secondary:amine_secondary,1(amine_secondary) > 4(amine_secondary) > 7(amine_secondary) > 10(amine_secondary),amine_secondary,amine_secondary(9.5~11.5); amine_secondary(9.5~11.5); amine_secondary(9.5~11.5); amine_secondary(9.5~11.5)
CNCCNCCNCCNC,4.08,1:4:7:10,amine_secondary:amine_secondary:amine_secondary:amine_secondary,"2,5,8,11-Tetraazadodecane",[H₄L]/[H₃L][H],0.5,25.0,1:4:7:10,amine_secondary:amine_secondary:amine_secondary:amine_secondary,1(amine_secondary) > 4(amine_secondary) > 7(amine_secondary) > 10(amine_secondary),amine_secondary,amine_secondary(9.5~11.5); amine_secondary(9.5~11.5); amine_secondary(9.5~11.5); amine_secondary(9.5~11.5)
CNCCCNCCCNCCNC,10.3,1:5:9:12,amine_secondary:amine_secondary:amine_secondary:amine_secondary,"2,5,9,13-Tetraazatetradecane",[HL]/[L][H],0.5,25.0,1:5:9:12,amine_secondary:amine_secondary:amine_secondary:amine_secondary,1(amine_secondary) > 5(amine_secondary) > 9(amine_secondary) > 12(amine_secondary),amine_secondary,amine_secondary(9.5~11.5); amine_secondary(9.5~11.5); amine_secondary(9.5~11.5); amine_secondary(9.5~11.5)
CNCCCNCCCNCCNC,9.57,1:5:9:12,amine_secondary:amine_secondary:amine_secondary:amine_secondary,"2,5,9,13-Tetraazatetradecane",[H₂L]/[HL][H],0.5,25.0,1:5:9:12,amine_secondary:amine_secondary:amine_secondary:amine_secondary,1(amine_secondary) > 5(amine_secondary) > 9(amine_secondary) > 12(amine_secondary),amine_secondary,amine_secondary(9.5~11.5); amine_secondary(9.5~11.5); amine_secondary(9.5~11.5); amine_secondary(9.5~11.5)
CNCCCNCCCNCCNC,7.18,1:5:9:12,amine_secondary:amine_secondary:amine_secondary:amine_secondary,"2,5,9,13-Tetraazatetradecane",[H₃L]/[H₂L][H],0.5,25.0,1:5:9:12,amine_secondary:amine_secondary:amine_secondary:amine_secondary,1(amine_secondary) > 5(amine_secondary) > 9(amine_secondary) > 12(amine_secondary),amine_secondary,amine_secondary(9.5~11.5); amine_secondary(9.5~11.5); amine_secondary(9.5~11.5); amine_secondary(9.5~11.5)
CNCCCNCCCNCCNC,5.66,1:5:9:12,amine_secondary:amine_secondary:amine_secondary:amine_secondary,"2,5,9,13-Tetraazatetradecane",[H₄L]/[H₃L][H],0.5,25.0,1:5:9:12,amine_secondary:amine_secondary:amine_secondary:amine_secondary,1(amine_secondary) > 5(amine_secondary) > 9(amine_secondary) > 12(amine_secondary),amine_secondary,amine_secondary(9.5~11.5); amine_secondary(9.5~11.5); amine_secondary(9.5~11.5); amine_secondary(9.5~11.5)
CNCCCNCCNCCCNC,10.84,1:5:8:12,amine_secondary:amine_secondary:amine_secondary:amine_secondary,"2,6,9,13-Tetraazatetradecane",[HL]/[L][H],0.5,25.0,1:5:8:12,amine_secondary:amine_secondary:amine_secondary:amine_secondary,1(amine_secondary) > 5(amine_secondary) > 8(amine_secondary) > 12(amine_secondary),amine_secondary,amine_secondary(9.5~11.5); amine_secondary(9.5~11.5); amine_secondary(9.5~11.5); amine_secondary(9.5~11.5)
CNCCCNCCNCCCNC,10.12,1:5:8:12,amine_secondary:amine_secondary:amine_secondary:amine_secondary,"2,6,9,13-Tetraazatetradecane",[H₂L]/[HL][H],0.5,25.0,1:5:8:12,amine_secondary:amine_secondary:amine_secondary:amine_secondary,1(amine_secondary) > 5(amine_secondary) > 8(amine_secondary) > 12(amine_secondary),amine_secondary,amine_secondary(9.5~11.5); amine_secondary(9.5~11.5); amine_secondary(9.5~11.5); amine_secondary(9.5~11.5)
CNCCCNCCNCCCNC,8.44,1:5:8:12,amine_secondary:amine_secondary:amine_secondary:amine_secondary,"2,6,9,13-Tetraazatetradecane",[H₃L]/[H₂L][H],0.5,25.0,1:5:8:12,amine_secondary:amine_secondary:amine_secondary:amine_secondary,1(amine_secondary) > 5(amine_secondary) > 8(amine_secondary) > 12(amine_secondary),amine_secondary,amine_secondary(9.5~11.5); amine_secondary(9.5~11.5); amine_secondary(9.5~11.5); amine_secondary(9.5~11.5)
CNCCCNCCNCCCNC,5.69,1:5:8:12,amine_secondary:amine_secondary:amine_secondary:amine_secondary,"2,6,9,13-Tetraazatetradecane",[H₄L]/[H₃L][H],0.5,25.0,1:5:8:12,amine_secondary:amine_secondary:amine_secondary:amine_secondary,1(amine_secondary) > 5(amine_secondary) > 8(amine_secondary) > 12(amine_secondary),amine_secondary,amine_secondary(9.5~11.5); amine_secondary(9.5~11.5); amine_secondary(9.5~11.5); amine_secondary(9.5~11.5)
CNCCCNCCCNCCCNC,10.95,1:5:9:13,amine_secondary:amine_secondary:amine_secondary:amine_secondary,"2,6,10,14-Tetraazapentadecane",[HL]/[L][H],0.5,25.0,1:5:9:13,amine_secondary:amine_secondary:amine_secondary:amine_secondary,1(amine_secondary) > 5(amine_secondary) > 9(amine_secondary) > 13(amine_secondary),amine_secondary,amine_secondary(9.5~11.5); amine_secondary(9.5~11.5); amine_secondary(9.5~11.5); amine_secondary(9.5~11.5)