SMILES,pKa,Dissociable_Atoms,Functional_Group,Name,Equilibrium,Ionic,Temperature,Dissociable_Atoms_Ordered,Functional_Group_Ordered,Dissociation_Order,Dissociating_Group,Functional_Group_pKa_Ranges
OC(=O)CN(CC(O)=O)c1ccc(cc1)N(CC(O)=O)CC(O)=O,2.85,0:7:18:22,carboxylic_acid:carboxylic_acid:carboxylic_acid:carboxylic_acid,"1,4-Phenylenedinitrilotetraacetic acid",[H₃L]/[H₂L][H],0.1,25.0,0:7:18:22,carboxylic_acid:carboxylic_acid:carboxylic_acid:carboxylic_acid,0(carboxylic_acid) > 7(carboxylic_acid) > 18(carboxylic_acid) > 22(carboxylic_acid),carboxylic_acid,carboxylic_acid(1.5~5.0); carboxylic_acid(1.5~5.0); carboxylic_acid(1.5~5.0); carboxylic_acid(1.5~5.0)
OC(=O)CN(CC(O)=O)c1ccc(cc1)N(CC(O)=O)CC(O)=O,5.76,0:7:18:22,carboxylic_acid:carboxylic_acid:carboxylic_acid:carboxylic_acid,"1,4-Phenylenedinitrilotetraacetic acid",[H₃L]/[H₂L][H],0.5,25.0,0:7:18:22,carboxylic_acid:carboxylic_acid:carboxylic_acid:carboxylic_acid,0(carboxylic_acid) > 7(carboxylic_acid) > 18(carboxylic_acid) > 22(carboxylic_acid),carboxylic_acid,carboxylic_acid(1.5~5.0); carboxylic_acid(1.5~5.0); carboxylic_acid(1.5~5.0); carboxylic_acid(1.5~5.0)
OC(=O)CN(CC(O)=O)c1ccc(cc1)N(CC(O)=O)CC(O)=O,1.8,0:7:18:22,carboxylic_acid:carboxylic_acid:carboxylic_acid:carboxylic_acid,"1,4-Phenylenedinitrilotetraacetic acid",[H₄L]/[H₃L][H],0.1,25.0,0:7:18:22,carboxylic_acid:carboxylic_acid:carboxylic_acid:carboxylic_acid,0(carboxylic_acid) > 7(carboxylic_acid) > 18(carboxylic_acid) > 22(carboxylic_acid),carboxylic_acid,carboxylic_acid(1.5~5.0); carboxylic_acid(1.5~5.0); carboxylic_acid(1.5~5.0); carboxylic_acid(1.5~5.0)
OC(=O)CN(CC(O)=O)c1ccc(cc1)N(CC(O)=O)CC(O)=O,2.1,0:7:18:22,carboxylic_acid:carboxylic_acid:carboxylic_acid:carboxylic_acid,"1,4-Phenylenedinitrilotetraacetic acid",[H₄L]/[H₃L][H],0.5,25.0,0:7:18:22,carboxylic_acid:carboxylic_acid:carboxylic_acid:carboxylic_acid,0(carboxylic_acid) > 7(carboxylic_acid) > 18(carboxylic_acid) > 22(carboxylic_acid),carboxylic_acid,carboxylic_acid(1.5~5.0); carboxylic_acid(1.5~5.0); carboxylic_acid(1.5~5.0); carboxylic_acid(1.5~5.0)
Cc1cc(ccc1N(CC(O)=O)CC(O)=O)N(CC(O)=O)CC(O)=O,7.1,10:14:19:23,carboxylic_acid:carboxylic_acid:carboxylic_acid:carboxylic_acid,"2-Methyl-1,4-phenylenedinitrilotetraacetic acid",[HL]/[L][H],0.1,25.0,10:14:19:23,carboxylic_acid:carboxylic_acid:carboxylic_acid:carboxylic_acid,10(carboxylic_acid) > 14(carboxylic_acid) > 19(carboxylic_acid) > 23(carboxylic_acid),carboxylic_acid,carboxylic_acid(1.5~5.0); carboxylic_acid(1.5~5.0); carboxylic_acid(1.5~5.0); carboxylic_acid(1.5~5.0)
Cc1cc(ccc1N(CC(O)=O)CC(O)=O)N(CC(O)=O)CC(O)=O,4.96,10:14:19:23,carboxylic_acid:carboxylic_acid:carboxylic_acid:carboxylic_acid,"2-Methyl-1,4-phenylenedinitrilotetraacetic acid",[H₂L]/[HL][H],0.1,25.0,10:14:19:23,carboxylic_acid:carboxylic_acid:carboxylic_acid:carboxylic_acid,10(carboxylic_acid) > 14(carboxylic_acid) > 19(carboxylic_acid) > 23(carboxylic_acid),carboxylic_acid,carboxylic_acid(1.5~5.0); carboxylic_acid(1.5~5.0); carboxylic_acid(1.5~5.0); carboxylic_acid(1.5~5.0)
Cc1cc(ccc1N(CC(O)=O)CC(O)=O)N(CC(O)=O)CC(O)=O,3.07,10:14:19:23,carboxylic_acid:carboxylic_acid:carboxylic_acid:carboxylic_acid,"2-Methyl-1,4-phenylenedinitrilotetraacetic acid",[H₃L]/[H₂L][H],0.1,25.0,10:14:19:23,carboxylic_acid:carboxylic_acid:carboxylic_acid:carboxylic_acid,10(carboxylic_acid) > 14(carboxylic_acid) > 19(carboxylic_acid) > 23(carboxylic_acid),carboxylic_acid,carboxylic_acid(1.5~5.0); carboxylic_acid(1.5~5.0); carboxylic_acid(1.5~5.0); carboxylic_acid(1.5~5.0)
Cc1cc(ccc1N(CC(O)=O)CC(O)=O)N(CC(O)=O)CC(O)=O,2.27,10:14:19:23,carboxylic_acid:carboxylic_acid:carboxylic_acid:carboxylic_acid,"2-Methyl-1,4-phenylenedinitrilotetraacetic acid",[H₄L]/[H₃L][H],0.1,25.0,10:14:19:23,carboxylic_acid:carboxylic_acid:carboxylic_acid:carboxylic_acid,10(carboxylic_acid) > 14(carboxylic_acid) > 19(carboxylic_acid) > 23(carboxylic_acid),carboxylic_acid,carboxylic_acid(1.5~5.0); carboxylic_acid(1.5~5.0); carboxylic_acid(1.5~5.0); carboxylic_acid(1.5~5.0)
OC(=O)c1ccccn1,5.21,8,pyridine_nitrogen,Pyridine-2-carboxylic acid (Picolinic acid),[HL]/[L][H],0.1,25.0,8,pyridine_nitrogen,8(pyridine_nitrogen),Unknown,pyridine_nitrogen(Unknown)
OC(=O)c1ccccn1,5.18,8,pyridine_nitrogen,Pyridine-2-carboxylic acid (Picolinic acid),[HL]/[L][H],0.5,25.0,8,pyridine_nitrogen,8(pyridine_nitrogen),Unknown,pyridine_nitrogen(Unknown)
OC(=O)c1ccccn1,5.29,8,pyridine_nitrogen,Pyridine-2-carboxylic acid (Picolinic acid),[HL]/[L][H],1.0,25.0,8,pyridine_nitrogen,8(pyridine_nitrogen),Unknown,pyridine_nitrogen(Unknown)
OC(=O)c1ccccn1,5.36,8,pyridine_nitrogen,Pyridine-2-carboxylic acid (Picolinic acid),[HL]/[L][H],2.0,25.0,8,pyridine_nitrogen,8(pyridine_nitrogen),Unknown,pyridine_nitrogen(Unknown)
OC(=O)c1ccccn1,5.8,8,pyridine_nitrogen,Pyridine-2-carboxylic acid (Picolinic acid),[HL]/[L][H],3.0,25.0,8,pyridine_nitrogen,8(pyridine_nitrogen),Unknown,pyridine_nitrogen(Unknown)
OC(=O)c1ccccn1,5.93,8,pyridine_nitrogen,Pyridine-2-carboxylic acid (Picolinic acid),[HL]/[L][H],3.0,25.0,8,pyridine_nitrogen,8(pyridine_nitrogen),Unknown,pyridine_nitrogen(Unknown)
OC(=O)c1ccccn1,5.39,8,pyridine_nitrogen,Pyridine-2-carboxylic acid (Picolinic acid),[HL]/[L][H],0.0,25.0,8,pyridine_nitrogen,8(pyridine_nitrogen),Unknown,pyridine_nitrogen(Unknown)
OC(=O)c1ccccn1,0.95,8,pyridine_nitrogen,Pyridine-2-carboxylic acid (Picolinic acid),[H₂L]/[HL][H],0.1,25.0,8,pyridine_nitrogen,8(pyridine_nitrogen),Unknown,pyridine_nitrogen(Unknown)
OC(=O)c1ccccn1,0.86,8,pyridine_nitrogen,Pyridine-2-carboxylic acid (Picolinic acid),[H₂L]/[HL][H],0.5,25.0,8,pyridine_nitrogen,8(pyridine_nitrogen),Unknown,pyridine_nitrogen(Unknown)
OC(=O)c1ccccn1,0.95,8,pyridine_nitrogen,Pyridine-2-carboxylic acid (Picolinic acid),[H₂L]/[HL][H],1.0,25.0,8,pyridine_nitrogen,8(pyridine_nitrogen),Unknown,pyridine_nitrogen(Unknown)
OC(=O)c1ccccn1,1.36,8,pyridine_nitrogen,Pyridine-2-carboxylic acid (Picolinic acid),[H₂L]/[HL][H],3.0,25.0,8,pyridine_nitrogen,8(pyridine_nitrogen),Unknown,pyridine_nitrogen(Unknown)
OC(=O)c1ccccn1,1.99,8,pyridine_nitrogen,Pyridine-2-carboxylic acid (Picolinic acid),[H₂L]/[HL][H],3.0,25.0,8,pyridine_nitrogen,8(pyridine_nitrogen),Unknown,pyridine_nitrogen(Unknown)
OC(=O)c1ccccn1,1.01,8,pyridine_nitrogen,Pyridine-2-carboxylic acid (Picolinic acid),[H₂L]/[HL][H],0.0,25.0,8,pyridine_nitrogen,8(pyridine_nitrogen),Unknown,pyridine_nitrogen(Unknown)
Cc1cccc(n1)C(O)=O,5.86,8,ring_nitrogen,6-Methylpyridine-2-carboxylic acid,[HL]/[L][H],0.1,25.0,8,ring_nitrogen,8(ring_nitrogen),Unknown,ring_nitrogen(Unknown)
Cc1cccc(n1)C(O)=O,5.95,8,ring_nitrogen,6-Methylpyridine-2-carboxylic acid,[HL]/[L][H],0.1,20.0,8,ring_nitrogen,8(ring_nitrogen),Unknown,ring_nitrogen(Unknown)
Cc1cccc(n1)C(O)=O,1.2,8,ring_nitrogen,6-Methylpyridine-2-carboxylic acid,[H₂L]/[HL][H],0.1,25.0,8,ring_nitrogen,8(ring_nitrogen),Unknown,ring_nitrogen(Unknown)
OC(=O)c1ccc2ccccc2n1,4.77,18,ring_nitrogen,Quinoline-2-carboxylic acid (Quinaldic acid),[HL]/[L][H],0.1,25.0,18,ring_nitrogen,18(ring_nitrogen),Unknown,ring_nitrogen(Unknown)
OC(=O)c1ccc2ccccc2n1,4.67,18,ring_nitrogen,Quinoline-2-carboxylic acid (Quinaldic acid),[HL]/[L][H],0.5,25.0,18,ring_nitrogen,18(ring_nitrogen),Unknown,ring_nitrogen(Unknown)
OC(=O)c1ccc2ccccc2n1,4.68,18,ring_nitrogen,Quinoline-2-carboxylic acid (Quinaldic acid),[HL]/[L][H],1.0,25.0,18,ring_nitrogen,18(ring_nitrogen),Unknown,ring_nitrogen(Unknown)
OC(=O)c1ccc2ccccc2n1,4.62,18,ring_nitrogen,Quinoline-2-carboxylic acid (Quinaldic acid),[HL]/[L][H],2.0,25.0,18,ring_nitrogen,18(ring_nitrogen),Unknown,ring_nitrogen(Unknown)
OC(=O)c1ccc2ccccc2n1,4.76,18,ring_nitrogen,Quinoline-2-carboxylic acid (Quinaldic acid),[HL]/[L][H],2.0,25.0,18,ring_nitrogen,18(ring_nitrogen),Unknown,ring_nitrogen(Unknown)
OC(=O)c1ccc2ccccc2n1,5.0,18,ring_nitrogen,Quinoline-2-carboxylic acid (Quinaldic acid),[HL]/[L][H],2.0,25.0,18,ring_nitrogen,18(ring_nitrogen),Unknown,ring_nitrogen(Unknown)
OC(=O)c1ccc2ccccc2n1,5.58,18,ring_nitrogen,Quinoline-2-carboxylic acid (Quinaldic acid),[HL]/[L][H],3.0,25.0,18,ring_nitrogen,18(ring_nitrogen),Unknown,ring_nitrogen(Unknown)
OC(=O)c1ccc2ccccc2n1,4.97,18,ring_nitrogen,Quinoline-2-carboxylic acid (Quinaldic acid),[HL]/[L][H],0.0,25.0,18,ring_nitrogen,18(ring_nitrogen),Unknown,ring_nitrogen(Unknown)
OC(=O)c1ccc2ccccc2n1,1.9,18,ring_nitrogen,Quinoline-2-carboxylic acid (Quinaldic acid),[H₂L]/[HL][H],0.1,25.0,18,ring_nitrogen,18(ring_nitrogen),Unknown,ring_nitrogen(Unknown)
OC(=O)c1ccc2ccccc2n1,2.17,18,ring_nitrogen,Quinoline-2-carboxylic acid (Quinaldic acid),[H₂L]/[HL][H],3.0,25.0,18,ring_nitrogen,18(ring_nitrogen),Unknown,ring_nitrogen(Unknown)
OC(=O)c1cccc[n+]1[O-],3.31,0,carboxylic_acid,Pyridine-2-carboxylic acid N-oxide,[HL]/[L][H],2.0,25.0,0,carboxylic_acid,0(carboxylic_acid),carboxylic_acid,carboxylic_acid(1.5~5.0)
OC(=O)c1cccc2cccnc12,6.66,1:10,carboxylic_acid:pyridine_nitrogen,Quinoline-8-carboxylic acid,[HL]/[L][H],0.1,25.0,1:10,carboxylic_acid:pyridine_nitrogen,1(carboxylic_acid) > 10(pyridine_nitrogen),carboxylic_acid,carboxylic_acid(1.5~5.0); pyridine_nitrogen(Unknown)
OC(=O)c1cccc2cccnc12,6.59,1:10,carboxylic_acid:pyridine_nitrogen,Quinoline-8-carboxylic acid,[HL]/[L][H],0.5,25.0,1:10,carboxylic_acid:pyridine_nitrogen,1(carboxylic_acid) > 10(pyridine_nitrogen),carboxylic_acid,carboxylic_acid(1.5~5.0); pyridine_nitrogen(Unknown)
OC(=O)c1cccc2cccnc12,6.64,1:10,carboxylic_acid:pyridine_nitrogen,Quinoline-8-carboxylic acid,[HL]/[L][H],1.0,25.0,1:10,carboxylic_acid:pyridine_nitrogen,1(carboxylic_acid) > 10(pyridine_nitrogen),carboxylic_acid,carboxylic_acid(1.5~5.0); pyridine_nitrogen(Unknown)
OC(=O)c1cccc2cccnc12,6.58,1:10,carboxylic_acid:pyridine_nitrogen,Quinoline-8-carboxylic acid,[HL]/[L][H],2.0,25.0,1:10,carboxylic_acid:pyridine_nitrogen,1(carboxylic_acid) > 10(pyridine_nitrogen),carboxylic_acid,carboxylic_acid(1.5~5.0); pyridine_nitrogen(Unknown)
OC(=O)c1cccc2cccnc12,6.68,1:10,carboxylic_acid:pyridine_nitrogen,Quinoline-8-carboxylic acid,[HL]/[L][H],2.0,25.0,1:10,carboxylic_acid:pyridine_nitrogen,1(carboxylic_acid) > 10(pyridine_nitrogen),carboxylic_acid,carboxylic_acid(1.5~5.0); pyridine_nitrogen(Unknown)
OC(=O)c1cccc2cccnc12,7.01,1:10,carboxylic_acid:pyridine_nitrogen,Quinoline-8-carboxylic acid,[HL]/[L][H],2.0,25.0,1:10,carboxylic_acid:pyridine_nitrogen,1(carboxylic_acid) > 10(pyridine_nitrogen),carboxylic_acid,carboxylic_acid(1.5~5.0); pyridine_nitrogen(Unknown)
OC(=O)c1cccc2cccnc12,6.87,1:10,carboxylic_acid:pyridine_nitrogen,Quinoline-8-carboxylic acid,[HL]/[L][H],0.0,25.0,1:10,carboxylic_acid:pyridine_nitrogen,1(carboxylic_acid) > 10(pyridine_nitrogen),carboxylic_acid,carboxylic_acid(1.5~5.0); pyridine_nitrogen(Unknown)
OC(=O)c1cccc2cccnc12,1.9,1:10,carboxylic_acid:pyridine_nitrogen,Quinoline-8-carboxylic acid,[H₂L]/[HL][H],0.1,25.0,1:10,carboxylic_acid:pyridine_nitrogen,1(carboxylic_acid) > 10(pyridine_nitrogen),carboxylic_acid,carboxylic_acid(1.5~5.0); pyridine_nitrogen(Unknown)
OC(=O)c1cccc2cccnc12,1.95,1:10,carboxylic_acid:pyridine_nitrogen,Quinoline-8-carboxylic acid,[H₂L]/[HL][H],1.0,25.0,1:10,carboxylic_acid:pyridine_nitrogen,1(carboxylic_acid) > 10(pyridine_nitrogen),carboxylic_acid,carboxylic_acid(1.5~5.0); pyridine_nitrogen(Unknown)
OC(=O)c1cccc2cccnc12,1.8,1:10,carboxylic_acid:pyridine_nitrogen,Quinoline-8-carboxylic acid,[H₂L]/[HL][H],0.0,25.0,1:10,carboxylic_acid:pyridine_nitrogen,1(carboxylic_acid) > 10(pyridine_nitrogen),carboxylic_acid,carboxylic_acid(1.5~5.0); pyridine_nitrogen(Unknown)
OC(=O)c1cccnc1C(O)=O,4.72,0:10,carboxylic_acid:carboxylic_acid,"Pyridine-2,3-dicarboxylic acid (Quinolinic acid)",[HL]/[L][H],0.1,25.0,0:10,carboxylic_acid:carboxylic_acid,0(carboxylic_acid) > 10(carboxylic_acid),carboxylic_acid,carboxylic_acid(1.5~5.0); carboxylic_acid(1.5~5.0)
OC(=O)c1cccnc1C(O)=O,4.58,0:10,carboxylic_acid:carboxylic_acid,"Pyridine-2,3-dicarboxylic acid (Quinolinic acid)",[HL]/[L][H],0.5,25.0,0:10,carboxylic_acid:carboxylic_acid,0(carboxylic_acid) > 10(carboxylic_acid),carboxylic_acid,carboxylic_acid(1.5~5.0); carboxylic_acid(1.5~5.0)
OC(=O)c1cccnc1C(O)=O,5.1,0:10,carboxylic_acid:carboxylic_acid,"Pyridine-2,3-dicarboxylic acid (Quinolinic acid)",[HL]/[L][H],0.0,25.0,0:10,carboxylic_acid:carboxylic_acid,0(carboxylic_acid) > 10(carboxylic_acid),carboxylic_acid,carboxylic_acid(1.5~5.0); carboxylic_acid(1.5~5.0)
OC(=O)c1cccnc1C(O)=O,2.36,0:10,carboxylic_acid:carboxylic_acid,"Pyridine-2,3-dicarboxylic acid (Quinolinic acid)",[H₂L]/[HL][H],0.1,25.0,0:10,carboxylic_acid:carboxylic_acid,0(carboxylic_acid) > 10(carboxylic_acid),carboxylic_acid,carboxylic_acid(1.5~5.0); carboxylic_acid(1.5~5.0)
OC(=O)c1cccnc1C(O)=O,2.3,0:10,carboxylic_acid:carboxylic_acid,"Pyridine-2,3-dicarboxylic acid (Quinolinic acid)",[H₂L]/[HL][H],0.5,25.0,0:10,carboxylic_acid:carboxylic_acid,0(carboxylic_acid) > 10(carboxylic_acid),carboxylic_acid,carboxylic_acid(1.5~5.0); carboxylic_acid(1.5~5.0)
OC(=O)c1cccnc1C(O)=O,2.44,0:10,carboxylic_acid:carboxylic_acid,"Pyridine-2,3-dicarboxylic acid (Quinolinic acid)",[H₂L]/[HL][H],0.0,25.0,0:10,carboxylic_acid:carboxylic_acid,0(carboxylic_acid) > 10(carboxylic_acid),carboxylic_acid,carboxylic_acid(1.5~5.0); carboxylic_acid(1.5~5.0)
OC(=O)c1ccc(nc1)C(O)=O,4.58,0:10,carboxylic_acid:carboxylic_acid,"Pyridine-2,5-dicarboxylic acid (Isocinchomeronic acid)",[HL]/[L][H],0.5,25.0,0:10,carboxylic_acid:carboxylic_acid,0(carboxylic_acid) > 10(carboxylic_acid),carboxylic_acid,carboxylic_acid(1.5~5.0); carboxylic_acid(1.5~5.0)
OC(=O)c1ccc(nc1)C(O)=O,4.63,0:10,carboxylic_acid:carboxylic_acid,"Pyridine-2,5-dicarboxylic acid (Isocinchomeronic acid)",[HL]/[L][H],0.5,20.0,0:10,carboxylic_acid:carboxylic_acid,0(carboxylic_acid) > 10(carboxylic_acid),carboxylic_acid,carboxylic_acid(1.5~5.0); carboxylic_acid(1.5~5.0)
OC(=O)c1ccc(nc1)C(O)=O,5.02,0:10,carboxylic_acid:carboxylic_acid,"Pyridine-2,5-dicarboxylic acid (Isocinchomeronic acid)",[HL]/[L][H],0.0,20.0,0:10,carboxylic_acid:carboxylic_acid,0(carboxylic_acid) > 10(carboxylic_acid),carboxylic_acid,carboxylic_acid(1.5~5.0); carboxylic_acid(1.5~5.0)
OC(=O)c1ccc(nc1)C(O)=O,2.17,0:10,carboxylic_acid:carboxylic_acid,"Pyridine-2,5-dicarboxylic acid (Isocinchomeronic acid)",[H₂L]/[HL][H],0.5,25.0,0:10,carboxylic_acid:carboxylic_acid,0(carboxylic_acid) > 10(carboxylic_acid),carboxylic_acid,carboxylic_acid(1.5~5.0); carboxylic_acid(1.5~5.0)
OC(=O)c1ccc(nc1)C(O)=O,2.35,0:10,carboxylic_acid:carboxylic_acid,"Pyridine-2,5-dicarboxylic acid (Isocinchomeronic acid)",[H₂L]/[HL][H],0.5,20.0,0:10,carboxylic_acid:carboxylic_acid,0(carboxylic_acid) > 10(carboxylic_acid),carboxylic_acid,carboxylic_acid(1.5~5.0); carboxylic_acid(1.5~5.0)
OC(=O)c1ccc(nc1)C(O)=O,2.38,0:10,carboxylic_acid:carboxylic_acid,"Pyridine-2,5-dicarboxylic acid (Isocinchomeronic acid)",[H₂L]/[HL][H],0.0,20.0,0:10,carboxylic_acid:carboxylic_acid,0(carboxylic_acid) > 10(carboxylic_acid),carboxylic_acid,carboxylic_acid(1.5~5.0); carboxylic_acid(1.5~5.0)
OC(=O)c1cccc(n1)C(O)=O,4.66,0:10,carboxylic_acid:carboxylic_acid,"Pyridine-2,6-dicarboxylic acid (Dipicolinic acid)",[HL]/[L][H],0.1,25.0,0:10,carboxylic_acid:carboxylic_acid,0(carboxylic_acid) > 10(carboxylic_acid),carboxylic_acid,carboxylic_acid(1.5~5.0); carboxylic_acid(1.5~5.0)
OC(=O)c1cccc(n1)C(O)=O,4.51,0:10,carboxylic_acid:carboxylic_acid,"Pyridine-2,6-dicarboxylic acid (Dipicolinic acid)",[HL]/[L][H],0.5,25.0,0:10,carboxylic_acid:carboxylic_acid,0(carboxylic_acid) > 10(carboxylic_acid),carboxylic_acid,carboxylic_acid(1.5~5.0); carboxylic_acid(1.5~5.0)
OC(=O)c1cccc(n1)C(O)=O,4.45,0:10,carboxylic_acid:carboxylic_acid,"Pyridine-2,6-dicarboxylic acid (Dipicolinic acid)",[HL]/[L][H],1.0,25.0,0:10,carboxylic_acid:carboxylic_acid,0(carboxylic_acid) > 10(carboxylic_acid),carboxylic_acid,carboxylic_acid(1.5~5.0); carboxylic_acid(1.5~5.0)
OC(=O)c1cccc(n1)C(O)=O,5.09,0:10,carboxylic_acid:carboxylic_acid,"Pyridine-2,6-dicarboxylic acid (Dipicolinic acid)",[HL]/[L][H],0.0,25.0,0:10,carboxylic_acid:carboxylic_acid,0(carboxylic_acid) > 10(carboxylic_acid),carboxylic_acid,carboxylic_acid(1.5~5.0); carboxylic_acid(1.5~5.0)
OC(=O)c1cccc(n1)C(O)=O,2.07,0:10,carboxylic_acid:carboxylic_acid,"Pyridine-2,6-dicarboxylic acid (Dipicolinic acid)",[H₂L]/[HL][H],0.1,25.0,0:10,carboxylic_acid:carboxylic_acid,0(carboxylic_acid) > 10(carboxylic_acid),carboxylic_acid,carboxylic_acid(1.5~5.0); carboxylic_acid(1.5~5.0)
OC(=O)c1cccc(n1)C(O)=O,2.05,0:10,carboxylic_acid:carboxylic_acid,"Pyridine-2,6-dicarboxylic acid (Dipicolinic acid)",[H₂L]/[HL][H],0.5,25.0,0:10,carboxylic_acid:carboxylic_acid,0(carboxylic_acid) > 10(carboxylic_acid),carboxylic_acid,carboxylic_acid(1.5~5.0); carboxylic_acid(1.5~5.0)
OC(=O)c1cccc(n1)C(O)=O,2.07,0:10,carboxylic_acid:carboxylic_acid,"Pyridine-2,6-dicarboxylic acid (Dipicolinic acid)",[H₂L]/[HL][H],1.0,25.0,0:10,carboxylic_acid:carboxylic_acid,0(carboxylic_acid) > 10(carboxylic_acid),carboxylic_acid,carboxylic_acid(1.5~5.0); carboxylic_acid(1.5~5.0)
OC(=O)c1cccc(n1)C(O)=O,2.25,0:10,carboxylic_acid:carboxylic_acid,"Pyridine-2,6-dicarboxylic acid (Dipicolinic acid)",[H₂L]/[HL][H],0.0,25.0,0:10,carboxylic_acid:carboxylic_acid,0(carboxylic_acid) > 10(carboxylic_acid),carboxylic_acid,carboxylic_acid(1.5~5.0); carboxylic_acid(1.5~5.0)
OC(=O)c1ccncc1C(O)=O,4.9,6,pyridine_nitrogen,"Pyridine-3,4-dicarboxylic acid (Cinchomeronic acid)",[HL]/[L][H],0.5,25.0,6,pyridine_nitrogen,6(pyridine_nitrogen),Unknown,pyridine_nitrogen(Unknown)
OC(=O)c1ccncc1C(O)=O,2.7,6,pyridine_nitrogen,"Pyridine-3,4-dicarboxylic acid (Cinchomeronic acid)",[H₂L]/[HL][H],0.5,25.0,6,pyridine_nitrogen,6(pyridine_nitrogen),Unknown,pyridine_nitrogen(Unknown)
OC(=O)c1ccncc1C(O)=O,0.6,6,pyridine_nitrogen,"Pyridine-3,4-dicarboxylic acid (Cinchomeronic acid)",[H₃L]/[H₂L][H],1.0,25.0,6,pyridine_nitrogen,6(pyridine_nitrogen),Unknown,pyridine_nitrogen(Unknown)
OC(=O)c1cncc(c1)C(O)=O,4.3,1:8:3,carboxylic_acid:carboxylic_acid:pyridine_nitrogen,"Pyridine-3,5-dicarboxylic acid (Dinicotinic acid)",[HL]/[L][H],0.5,25.0,1:8:3,carboxylic_acid:carboxylic_acid:pyridine_nitrogen,1(carboxylic_acid) > 8(carboxylic_acid) > 3(pyridine_nitrogen),carboxylic_acid,carboxylic_acid(1.5~5.0); carboxylic_acid(1.5~5.0); pyridine_nitrogen(Unknown)
OC(=O)c1cncc(c1)C(O)=O,2.1,1:8:3,carboxylic_acid:carboxylic_acid:pyridine_nitrogen,"Pyridine-3,5-dicarboxylic acid (Dinicotinic acid)",[H₂L]/[HL][H],0.5,25.0,1:8:3,carboxylic_acid:carboxylic_acid:pyridine_nitrogen,1(carboxylic_acid) > 8(carboxylic_acid) > 3(pyridine_nitrogen),carboxylic_acid,carboxylic_acid(1.5~5.0); carboxylic_acid(1.5~5.0); pyridine_nitrogen(Unknown)
OC(=O)c1cncc(c1)C(O)=O,1.1,1:8:3,carboxylic_acid:carboxylic_acid:pyridine_nitrogen,"Pyridine-3,5-dicarboxylic acid (Dinicotinic acid)",[H₃L]/[H₂L][H],1.0,25.0,1:8:3,carboxylic_acid:carboxylic_acid:pyridine_nitrogen,1(carboxylic_acid) > 8(carboxylic_acid) > 3(pyridine_nitrogen),carboxylic_acid,carboxylic_acid(1.5~5.0); carboxylic_acid(1.5~5.0); pyridine_nitrogen(Unknown)
OC(=O)c1cc(O)c2ccccc2n1,11.0,6:0,phenol:carboxylic_acid,4-Hydroxyquinoline-2-carboxylic acid,[HL]/[L][H],0.1,25.0,0:6,carboxylic_acid:phenol,0(carboxylic_acid) > 6(phenol),phenol,phenol(8.0~11.0); carboxylic_acid(1.5~5.0)
OC(=O)c1cc(O)c2ccccc2n1,2.65,6:0,phenol:carboxylic_acid,4-Hydroxyquinoline-2-carboxylic acid,[H₂L]/[HL][H],0.1,25.0,0:6,carboxylic_acid:phenol,0(carboxylic_acid) > 6(phenol),carboxylic_acid,phenol(8.0~11.0); carboxylic_acid(1.5~5.0)
OC(=O)C1=CC(=O)C=C(N1)C(O)=O,10.88,9:0:11,amine_secondary:carboxylic_acid:carboxylic_acid,"4-Hydroxypyridine-2,6-dicarboxylic acid (Chelidamic acid)",[HL]/[L][H],0.1,20.0,0:11:9,carboxylic_acid:carboxylic_acid:amine_secondary,0(carboxylic_acid) > 11(carboxylic_acid) > 9(amine_secondary),amine_secondary,amine_secondary(9.5~11.5); carboxylic_acid(1.5~5.0); carboxylic_acid(1.5~5.0)