SMILES,pKa,Dissociable_Atoms,Functional_Group,Name,Dissociable_Atoms_Ordered,Functional_Group_Ordered,Dissociation_Order
OC(=O)CC(S)C(O)=O,3.08,0:5:7,carboxylic_acid:thiol:carboxylic_acid,DL-Mercaptobutanedioic acid (Thiomalic acid),0:7:5,carboxylic_acid:carboxylic_acid:thiol,0(carboxylic_acid) > 7(carboxylic_acid) > 5(thiol)
OC(=O)CC(S)C(O)=O,3.03,0:5:7,carboxylic_acid:thiol:carboxylic_acid,DL-Mercaptobutanedioic acid (Thiomalic acid),0:7:5,carboxylic_acid:carboxylic_acid:thiol,0(carboxylic_acid) > 7(carboxylic_acid) > 5(thiol)
OC(=O)CC(S)C(O)=O,2.9,0:5:7,carboxylic_acid:thiol:carboxylic_acid,DL-Mercaptobutanedioic acid (Thiomalic acid),0:7:5,carboxylic_acid:carboxylic_acid:thiol,0(carboxylic_acid) > 7(carboxylic_acid) > 5(thiol)
OC(=O)CC(S)C(O)=O,3.27,0:5:7,carboxylic_acid:thiol:carboxylic_acid,DL-Mercaptobutanedioic acid (Thiomalic acid),0:7:5,carboxylic_acid:carboxylic_acid:thiol,0(carboxylic_acid) > 7(carboxylic_acid) > 5(thiol)
OC(=O)CC(S)C(O)=O,3.5,0:5:7,carboxylic_acid:thiol:carboxylic_acid,DL-Mercaptobutanedioic acid (Thiomalic acid),0:7:5,carboxylic_acid:carboxylic_acid:thiol,0(carboxylic_acid) > 7(carboxylic_acid) > 5(thiol)