SMILES,pKa,Dissociable_Atoms,Functional_Group,Name,Equilibrium,Ionic,Temperature,Dissociable_Atoms_Ordered,Functional_Group_Ordered,Dissociation_Order,Dissociating_Group,Functional_Group_pKa_Ranges
CC(N)CN,9.81,2:4,amine_primary:amine_primary,"DL-Methylethylenediamine (1,2-Propylenediamine) (pn)",[HL]/[L][H],0.1,25.0,2:4,amine_primary:amine_primary,2(amine_primary) > 4(amine_primary),amine_primary,amine_primary(9.0~11.0); amine_primary(9.0~11.0)
CC(N)CN,9.94,2:4,amine_primary:amine_primary,"DL-Methylethylenediamine (1,2-Propylenediamine) (pn)",[HL]/[L][H],0.5,25.0,2:4,amine_primary:amine_primary,2(amine_primary) > 4(amine_primary),amine_primary,amine_primary(9.0~11.0); amine_primary(9.0~11.0)
CC(N)CN,10.09,2:4,amine_primary:amine_primary,"DL-Methylethylenediamine (1,2-Propylenediamine) (pn)",[HL]/[L][H],1.0,25.0,2:4,amine_primary:amine_primary,2(amine_primary) > 4(amine_primary),amine_primary,amine_primary(9.0~11.0); amine_primary(9.0~11.0)
CC(N)CN,10.24,2:4,amine_primary:amine_primary,"DL-Methylethylenediamine (1,2-Propylenediamine) (pn)",[HL]/[L][H],2.0,25.0,2:4,amine_primary:amine_primary,2(amine_primary) > 4(amine_primary),amine_primary,amine_primary(9.0~11.0); amine_primary(9.0~11.0)
CC(N)CN,10.47,2:4,amine_primary:amine_primary,"DL-Methylethylenediamine (1,2-Propylenediamine) (pn)",[HL]/[L][H],3.0,25.0,2:4,amine_primary:amine_primary,2(amine_primary) > 4(amine_primary),amine_primary,amine_primary(9.0~11.0); amine_primary(9.0~11.0)
CC(N)CN,9.77,2:4,amine_primary:amine_primary,"DL-Methylethylenediamine (1,2-Propylenediamine) (pn)",[HL]/[L][H],0.0,25.0,2:4,amine_primary:amine_primary,2(amine_primary) > 4(amine_primary),amine_primary,amine_primary(9.0~11.0); amine_primary(9.0~11.0)
CC(N)CN,6.85,2:4,amine_primary:amine_primary,"DL-Methylethylenediamine (1,2-Propylenediamine) (pn)",[H₂L]/[HL][H],0.1,25.0,2:4,amine_primary:amine_primary,2(amine_primary) > 4(amine_primary),amine_primary,amine_primary(9.0~11.0); amine_primary(9.0~11.0)
CC(N)CN,7.07,2:4,amine_primary:amine_primary,"DL-Methylethylenediamine (1,2-Propylenediamine) (pn)",[H₂L]/[HL][H],0.5,25.0,2:4,amine_primary:amine_primary,2(amine_primary) > 4(amine_primary),amine_primary,amine_primary(9.0~11.0); amine_primary(9.0~11.0)
CC(N)CN,7.22,2:4,amine_primary:amine_primary,"DL-Methylethylenediamine (1,2-Propylenediamine) (pn)",[H₂L]/[HL][H],1.0,25.0,2:4,amine_primary:amine_primary,2(amine_primary) > 4(amine_primary),amine_primary,amine_primary(9.0~11.0); amine_primary(9.0~11.0)
CC(N)CN,7.45,2:4,amine_primary:amine_primary,"DL-Methylethylenediamine (1,2-Propylenediamine) (pn)",[H₂L]/[HL][H],2.0,25.0,2:4,amine_primary:amine_primary,2(amine_primary) > 4(amine_primary),amine_primary,amine_primary(9.0~11.0); amine_primary(9.0~11.0)
CC(N)CN,7.65,2:4,amine_primary:amine_primary,"DL-Methylethylenediamine (1,2-Propylenediamine) (pn)",[H₂L]/[HL][H],3.0,25.0,2:4,amine_primary:amine_primary,2(amine_primary) > 4(amine_primary),amine_primary,amine_primary(9.0~11.0); amine_primary(9.0~11.0)
CC(N)CN,6.61,2:4,amine_primary:amine_primary,"DL-Methylethylenediamine (1,2-Propylenediamine) (pn)",[H₂L]/[HL][H],0.0,25.0,2:4,amine_primary:amine_primary,2(amine_primary) > 4(amine_primary),amine_primary,amine_primary(9.0~11.0); amine_primary(9.0~11.0)
CCC(N)CN,9.66,3:5,amine_primary:amine_primary,"DL-Ethylethylenediamine (1,2-Butylenediamine)",[HL]/[L][H],0.1,25.0,3:5,amine_primary:amine_primary,3(amine_primary) > 5(amine_primary),amine_primary,amine_primary(9.0~11.0); amine_primary(9.0~11.0)
CCC(N)CN,9.39,3:5,amine_primary:amine_primary,"DL-Ethylethylenediamine (1,2-Butylenediamine)",[HL]/[L][H],0.0,25.0,3:5,amine_primary:amine_primary,3(amine_primary) > 5(amine_primary),amine_primary,amine_primary(9.0~11.0); amine_primary(9.0~11.0)
CCC(N)CN,6.65,3:5,amine_primary:amine_primary,"DL-Ethylethylenediamine (1,2-Butylenediamine)",[H₂L]/[HL][H],0.1,25.0,3:5,amine_primary:amine_primary,3(amine_primary) > 5(amine_primary),amine_primary,amine_primary(9.0~11.0); amine_primary(9.0~11.0)
CCC(N)CN,6.4,3:5,amine_primary:amine_primary,"DL-Ethylethylenediamine (1,2-Butylenediamine)",[H₂L]/[HL][H],0.0,25.0,3:5,amine_primary:amine_primary,3(amine_primary) > 5(amine_primary),amine_primary,amine_primary(9.0~11.0); amine_primary(9.0~11.0)
CC(C)(C)NCCN,9.78,4:7,amine_secondary:amine_primary,DL-(2-Methyl-2-propyl)ethylenediamine (t-Butylethylenediamine),[HL]/[L][H],0.1,25.0,7:4,amine_primary:amine_secondary,7(amine_primary) > 4(amine_secondary),amine_primary,amine_secondary(9.5~11.5); amine_primary(9.0~11.0)
CC(C)(C)NCCN,6.26,4:7,amine_secondary:amine_primary,DL-(2-Methyl-2-propyl)ethylenediamine (t-Butylethylenediamine),[H₂L]/[HL][H],0.1,25.0,7:4,amine_primary:amine_secondary,7(amine_primary) > 4(amine_secondary),amine_primary,amine_secondary(9.5~11.5); amine_primary(9.0~11.0)
CC(C)(N)CN,9.75,3:5,amine_primary:amine_primary,"1,1-Dimethylethylenediamine",[HL]/[L][H],0.1,25.0,3:5,amine_primary:amine_primary,3(amine_primary) > 5(amine_primary),amine_primary,amine_primary(9.0~11.0); amine_primary(9.0~11.0)
CC(C)(N)CN,9.89,3:5,amine_primary:amine_primary,"1,1-Dimethylethylenediamine",[HL]/[L][H],0.5,25.0,3:5,amine_primary:amine_primary,3(amine_primary) > 5(amine_primary),amine_primary,amine_primary(9.0~11.0); amine_primary(9.0~11.0)
CC(C)(N)CN,10.06,3:5,amine_primary:amine_primary,"1,1-Dimethylethylenediamine",[HL]/[L][H],1.0,25.0,3:5,amine_primary:amine_primary,3(amine_primary) > 5(amine_primary),amine_primary,amine_primary(9.0~11.0); amine_primary(9.0~11.0)
CC(C)(N)CN,10.31,3:5,amine_primary:amine_primary,"1,1-Dimethylethylenediamine",[HL]/[L][H],2.0,25.0,3:5,amine_primary:amine_primary,3(amine_primary) > 5(amine_primary),amine_primary,amine_primary(9.0~11.0); amine_primary(9.0~11.0)
CC(C)(N)CN,9.62,3:5,amine_primary:amine_primary,"1,1-Dimethylethylenediamine",[HL]/[L][H],0.0,25.0,3:5,amine_primary:amine_primary,3(amine_primary) > 5(amine_primary),amine_primary,amine_primary(9.0~11.0); amine_primary(9.0~11.0)
CC(C)(N)CN,6.46,3:5,amine_primary:amine_primary,"1,1-Dimethylethylenediamine",[H₂L]/[HL][H],0.1,25.0,3:5,amine_primary:amine_primary,3(amine_primary) > 5(amine_primary),amine_primary,amine_primary(9.0~11.0); amine_primary(9.0~11.0)
CC(C)(N)CN,6.65,3:5,amine_primary:amine_primary,"1,1-Dimethylethylenediamine",[H₂L]/[HL][H],0.5,25.0,3:5,amine_primary:amine_primary,3(amine_primary) > 5(amine_primary),amine_primary,amine_primary(9.0~11.0); amine_primary(9.0~11.0)
CC(C)(N)CN,6.84,3:5,amine_primary:amine_primary,"1,1-Dimethylethylenediamine",[H₂L]/[HL][H],1.0,25.0,3:5,amine_primary:amine_primary,3(amine_primary) > 5(amine_primary),amine_primary,amine_primary(9.0~11.0); amine_primary(9.0~11.0)
CC(C)(N)CN,7.07,3:5,amine_primary:amine_primary,"1,1-Dimethylethylenediamine",[H₂L]/[HL][H],2.0,25.0,3:5,amine_primary:amine_primary,3(amine_primary) > 5(amine_primary),amine_primary,amine_primary(9.0~11.0); amine_primary(9.0~11.0)
CC(C)(N)CN,6.21,3:5,amine_primary:amine_primary,"1,1-Dimethylethylenediamine",[H₂L]/[HL][H],0.0,25.0,3:5,amine_primary:amine_primary,3(amine_primary) > 5(amine_primary),amine_primary,amine_primary(9.0~11.0); amine_primary(9.0~11.0)
CC(C)(N)C(C)(C)N,9.93,3:7,amine_primary:amine_primary,"1,1,2,2-Tetramethylethylenediamine",[HL]/[L][H],0.5,25.0,3:7,amine_primary:amine_primary,3(amine_primary) > 7(amine_primary),amine_primary,amine_primary(9.0~11.0); amine_primary(9.0~11.0)
CC(C)(N)C(C)(C)N,10.1,3:7,amine_primary:amine_primary,"1,1,2,2-Tetramethylethylenediamine",[HL]/[L][H],1.0,25.0,3:7,amine_primary:amine_primary,3(amine_primary) > 7(amine_primary),amine_primary,amine_primary(9.0~11.0); amine_primary(9.0~11.0)
CC(C)(N)C(C)(C)N,6.35,3:7,amine_primary:amine_primary,"1,1,2,2-Tetramethylethylenediamine",[H₂L]/[HL][H],0.5,25.0,3:7,amine_primary:amine_primary,3(amine_primary) > 7(amine_primary),amine_primary,amine_primary(9.0~11.0); amine_primary(9.0~11.0)
CC(C)(N)C(C)(C)N,6.46,3:7,amine_primary:amine_primary,"1,1,2,2-Tetramethylethylenediamine",[H₂L]/[HL][H],1.0,25.0,3:7,amine_primary:amine_primary,3(amine_primary) > 7(amine_primary),amine_primary,amine_primary(9.0~11.0); amine_primary(9.0~11.0)
NCCCN,10.54,0:4,amine_primary:amine_primary,"Trimethylenediamine (1,3-Propylenediamine)",[HL]/[L][H],0.1,25.0,0:4,amine_primary:amine_primary,0(amine_primary) > 4(amine_primary),amine_primary,amine_primary(9.0~11.0); amine_primary(9.0~11.0)
NCCCN,10.65,0:4,amine_primary:amine_primary,"Trimethylenediamine (1,3-Propylenediamine)",[HL]/[L][H],0.5,25.0,0:4,amine_primary:amine_primary,0(amine_primary) > 4(amine_primary),amine_primary,amine_primary(9.0~11.0); amine_primary(9.0~11.0)
NCCCN,10.77,0:4,amine_primary:amine_primary,"Trimethylenediamine (1,3-Propylenediamine)",[HL]/[L][H],1.0,25.0,0:4,amine_primary:amine_primary,0(amine_primary) > 4(amine_primary),amine_primary,amine_primary(9.0~11.0); amine_primary(9.0~11.0)
NCCCN,10.96,0:4,amine_primary:amine_primary,"Trimethylenediamine (1,3-Propylenediamine)",[HL]/[L][H],2.0,25.0,0:4,amine_primary:amine_primary,0(amine_primary) > 4(amine_primary),amine_primary,amine_primary(9.0~11.0); amine_primary(9.0~11.0)
NCCCN,11.11,0:4,amine_primary:amine_primary,"Trimethylenediamine (1,3-Propylenediamine)",[HL]/[L][H],2.0,25.0,0:4,amine_primary:amine_primary,0(amine_primary) > 4(amine_primary),amine_primary,amine_primary(9.0~11.0); amine_primary(9.0~11.0)
NCCCN,10.93,0:4,amine_primary:amine_primary,"Trimethylenediamine (1,3-Propylenediamine)",[HL]/[L][H],3.0,25.0,0:4,amine_primary:amine_primary,0(amine_primary) > 4(amine_primary),amine_primary,amine_primary(9.0~11.0); amine_primary(9.0~11.0)
NCCCN,11.11,0:4,amine_primary:amine_primary,"Trimethylenediamine (1,3-Propylenediamine)",[HL]/[L][H],3.0,25.0,0:4,amine_primary:amine_primary,0(amine_primary) > 4(amine_primary),amine_primary,amine_primary(9.0~11.0); amine_primary(9.0~11.0)
NCCCN,10.48,0:4,amine_primary:amine_primary,"Trimethylenediamine (1,3-Propylenediamine)",[HL]/[L][H],0.0,25.0,0:4,amine_primary:amine_primary,0(amine_primary) > 4(amine_primary),amine_primary,amine_primary(9.0~11.0); amine_primary(9.0~11.0)
NCCCN,8.78,0:4,amine_primary:amine_primary,"Trimethylenediamine (1,3-Propylenediamine)",[H₂L]/[HL][H],0.1,25.0,0:4,amine_primary:amine_primary,0(amine_primary) > 4(amine_primary),amine_primary,amine_primary(9.0~11.0); amine_primary(9.0~11.0)
NCCCN,8.94,0:4,amine_primary:amine_primary,"Trimethylenediamine (1,3-Propylenediamine)",[H₂L]/[HL][H],0.5,25.0,0:4,amine_primary:amine_primary,0(amine_primary) > 4(amine_primary),amine_primary,amine_primary(9.0~11.0); amine_primary(9.0~11.0)
NCCCN,9.13,0:4,amine_primary:amine_primary,"Trimethylenediamine (1,3-Propylenediamine)",[H₂L]/[HL][H],1.0,25.0,0:4,amine_primary:amine_primary,0(amine_primary) > 4(amine_primary),amine_primary,amine_primary(9.0~11.0); amine_primary(9.0~11.0)
NCCCN,9.3,0:4,amine_primary:amine_primary,"Trimethylenediamine (1,3-Propylenediamine)",[H₂L]/[HL][H],2.0,25.0,0:4,amine_primary:amine_primary,0(amine_primary) > 4(amine_primary),amine_primary,amine_primary(9.0~11.0); amine_primary(9.0~11.0)
NCCCN,9.47,0:4,amine_primary:amine_primary,"Trimethylenediamine (1,3-Propylenediamine)",[H₂L]/[HL][H],2.0,25.0,0:4,amine_primary:amine_primary,0(amine_primary) > 4(amine_primary),amine_primary,amine_primary(9.0~11.0); amine_primary(9.0~11.0)
NCCCN,9.47,0:4,amine_primary:amine_primary,"Trimethylenediamine (1,3-Propylenediamine)",[H₂L]/[HL][H],3.0,25.0,0:4,amine_primary:amine_primary,0(amine_primary) > 4(amine_primary),amine_primary,amine_primary(9.0~11.0); amine_primary(9.0~11.0)
NCCCN,9.71,0:4,amine_primary:amine_primary,"Trimethylenediamine (1,3-Propylenediamine)",[H₂L]/[HL][H],3.0,25.0,0:4,amine_primary:amine_primary,0(amine_primary) > 4(amine_primary),amine_primary,amine_primary(9.0~11.0); amine_primary(9.0~11.0)
NCCCN,8.48,0:4,amine_primary:amine_primary,"Trimethylenediamine (1,3-Propylenediamine)",[H₂L]/[HL][H],0.0,25.0,0:4,amine_primary:amine_primary,0(amine_primary) > 4(amine_primary),amine_primary,amine_primary(9.0~11.0); amine_primary(9.0~11.0)
CC(N)CCN,10.55,2:5,amine_primary:amine_primary,"DL-1-Methyltrimethylenediamine (1,3-Butylenediamine)",[HL]/[L][H],0.1,25.0,2:5,amine_primary:amine_primary,2(amine_primary) > 5(amine_primary),amine_primary,amine_primary(9.0~11.0); amine_primary(9.0~11.0)
CC(N)CCN,10.69,2:5,amine_primary:amine_primary,"DL-1-Methyltrimethylenediamine (1,3-Butylenediamine)",[HL]/[L][H],0.5,25.0,2:5,amine_primary:amine_primary,2(amine_primary) > 5(amine_primary),amine_primary,amine_primary(9.0~11.0); amine_primary(9.0~11.0)
CC(N)CCN,10.81,2:5,amine_primary:amine_primary,"DL-1-Methyltrimethylenediamine (1,3-Butylenediamine)",[HL]/[L][H],1.0,25.0,2:5,amine_primary:amine_primary,2(amine_primary) > 5(amine_primary),amine_primary,amine_primary(9.0~11.0); amine_primary(9.0~11.0)
CC(N)CCN,11.06,2:5,amine_primary:amine_primary,"DL-1-Methyltrimethylenediamine (1,3-Butylenediamine)",[HL]/[L][H],2.0,25.0,2:5,amine_primary:amine_primary,2(amine_primary) > 5(amine_primary),amine_primary,amine_primary(9.0~11.0); amine_primary(9.0~11.0)
CC(N)CCN,10.5,2:5,amine_primary:amine_primary,"DL-1-Methyltrimethylenediamine (1,3-Butylenediamine)",[HL]/[L][H],0.0,25.0,2:5,amine_primary:amine_primary,2(amine_primary) > 5(amine_primary),amine_primary,amine_primary(9.0~11.0); amine_primary(9.0~11.0)
CC(N)CCN,8.68,2:5,amine_primary:amine_primary,"DL-1-Methyltrimethylenediamine (1,3-Butylenediamine)",[H₂L]/[HL][H],0.1,25.0,2:5,amine_primary:amine_primary,2(amine_primary) > 5(amine_primary),amine_primary,amine_primary(9.0~11.0); amine_primary(9.0~11.0)
CC(N)CCN,8.91,2:5,amine_primary:amine_primary,"DL-1-Methyltrimethylenediamine (1,3-Butylenediamine)",[H₂L]/[HL][H],0.5,25.0,2:5,amine_primary:amine_primary,2(amine_primary) > 5(amine_primary),amine_primary,amine_primary(9.0~11.0); amine_primary(9.0~11.0)
CC(N)CCN,9.1,2:5,amine_primary:amine_primary,"DL-1-Methyltrimethylenediamine (1,3-Butylenediamine)",[H₂L]/[HL][H],1.0,25.0,2:5,amine_primary:amine_primary,2(amine_primary) > 5(amine_primary),amine_primary,amine_primary(9.0~11.0); amine_primary(9.0~11.0)
CC(N)CCN,9.37,2:5,amine_primary:amine_primary,"DL-1-Methyltrimethylenediamine (1,3-Butylenediamine)",[H₂L]/[HL][H],2.0,25.0,2:5,amine_primary:amine_primary,2(amine_primary) > 5(amine_primary),amine_primary,amine_primary(9.0~11.0); amine_primary(9.0~11.0)
CC(N)CCN,8.43,2:5,amine_primary:amine_primary,"DL-1-Methyltrimethylenediamine (1,3-Butylenediamine)",[H₂L]/[HL][H],0.0,25.0,2:5,amine_primary:amine_primary,2(amine_primary) > 5(amine_primary),amine_primary,amine_primary(9.0~11.0); amine_primary(9.0~11.0)
CC(C)(CN)CN,10.22,4:6,amine_primary:amine_primary,"2,2-Dimethyltrimethylenediamine (2,2-Dimethyl-1,3-propylenediamine)",[HL]/[L][H],1.0,30.0,4:6,amine_primary:amine_primary,4(amine_primary) > 6(amine_primary),amine_primary,amine_primary(9.0~11.0); amine_primary(9.0~11.0)
CC(C)(CN)CN,8.18,4:6,amine_primary:amine_primary,"2,2-Dimethyltrimethylenediamine (2,2-Dimethyl-1,3-propylenediamine)",[H₂L]/[HL][H],1.0,30.0,4:6,amine_primary:amine_primary,4(amine_primary) > 6(amine_primary),amine_primary,amine_primary(9.0~11.0); amine_primary(9.0~11.0)
NCC(=C)CN,10.09,0:5,amine_primary:amine_primary,"2-Methylenetrimethylenediamine (2-Methylene-1,3-propylenediamine)",[HL]/[L][H],0.5,25.0,0:5,amine_primary:amine_primary,0(amine_primary) > 5(amine_primary),amine_primary,amine_primary(9.0~11.0); amine_primary(9.0~11.0)
NCC(=C)CN,8.33,0:5,amine_primary:amine_primary,"2-Methylenetrimethylenediamine (2-Methylene-1,3-propylenediamine)",[H₂L]/[HL][H],0.5,25.0,0:5,amine_primary:amine_primary,0(amine_primary) > 5(amine_primary),amine_primary,amine_primary(9.0~11.0); amine_primary(9.0~11.0)
NCCCCN,10.72,0:5,amine_primary:amine_primary,"Tetramethylenediamine (1,4-Butylenediamine) (Putrescine)",[HL]/[L][H],0.1,25.0,0:5,amine_primary:amine_primary,0(amine_primary) > 5(amine_primary),amine_primary,amine_primary(9.0~11.0); amine_primary(9.0~11.0)
NCCCCN,10.87,0:5,amine_primary:amine_primary,"Tetramethylenediamine (1,4-Butylenediamine) (Putrescine)",[HL]/[L][H],0.5,25.0,0:5,amine_primary:amine_primary,0(amine_primary) > 5(amine_primary),amine_primary,amine_primary(9.0~11.0); amine_primary(9.0~11.0)
NCCCCN,11.01,0:5,amine_primary:amine_primary,"Tetramethylenediamine (1,4-Butylenediamine) (Putrescine)",[HL]/[L][H],1.0,25.0,0:5,amine_primary:amine_primary,0(amine_primary) > 5(amine_primary),amine_primary,amine_primary(9.0~11.0); amine_primary(9.0~11.0)
NCCCCN,11.37,0:5,amine_primary:amine_primary,"Tetramethylenediamine (1,4-Butylenediamine) (Putrescine)",[HL]/[L][H],2.0,25.0,0:5,amine_primary:amine_primary,0(amine_primary) > 5(amine_primary),amine_primary,amine_primary(9.0~11.0); amine_primary(9.0~11.0)
NCCCCN,11.05,0:5,amine_primary:amine_primary,"Tetramethylenediamine (1,4-Butylenediamine) (Putrescine)",[HL]/[L][H],3.0,25.0,0:5,amine_primary:amine_primary,0(amine_primary) > 5(amine_primary),amine_primary,amine_primary(9.0~11.0); amine_primary(9.0~11.0)
NCCCCN,10.67,0:5,amine_primary:amine_primary,"Tetramethylenediamine (1,4-Butylenediamine) (Putrescine)",[HL]/[L][H],0.0,25.0,0:5,amine_primary:amine_primary,0(amine_primary) > 5(amine_primary),amine_primary,amine_primary(9.0~11.0); amine_primary(9.0~11.0)
NCCCCN,9.46,0:5,amine_primary:amine_primary,"Tetramethylenediamine (1,4-Butylenediamine) (Putrescine)",[H₂L]/[HL][H],0.1,25.0,0:5,amine_primary:amine_primary,0(amine_primary) > 5(amine_primary),amine_primary,amine_primary(9.0~11.0); amine_primary(9.0~11.0)
NCCCCN,9.68,0:5,amine_primary:amine_primary,"Tetramethylenediamine (1,4-Butylenediamine) (Putrescine)",[H₂L]/[HL][H],0.5,25.0,0:5,amine_primary:amine_primary,0(amine_primary) > 5(amine_primary),amine_primary,amine_primary(9.0~11.0); amine_primary(9.0~11.0)
NCCCCN,9.85,0:5,amine_primary:amine_primary,"Tetramethylenediamine (1,4-Butylenediamine) (Putrescine)",[H₂L]/[HL][H],1.0,25.0,0:5,amine_primary:amine_primary,0(amine_primary) > 5(amine_primary),amine_primary,amine_primary(9.0~11.0); amine_primary(9.0~11.0)
NCCCCN,10.25,0:5,amine_primary:amine_primary,"Tetramethylenediamine (1,4-Butylenediamine) (Putrescine)",[H₂L]/[HL][H],2.0,25.0,0:5,amine_primary:amine_primary,0(amine_primary) > 5(amine_primary),amine_primary,amine_primary(9.0~11.0); amine_primary(9.0~11.0)
NCCCCN,10.39,0:5,amine_primary:amine_primary,"Tetramethylenediamine (1,4-Butylenediamine) (Putrescine)",[H₂L]/[HL][H],3.0,25.0,0:5,amine_primary:amine_primary,0(amine_primary) > 5(amine_primary),amine_primary,amine_primary(9.0~11.0); amine_primary(9.0~11.0)
NCCCCN,9.22,0:5,amine_primary:amine_primary,"Tetramethylenediamine (1,4-Butylenediamine) (Putrescine)",[H₂L]/[HL][H],0.0,25.0,0:5,amine_primary:amine_primary,0(amine_primary) > 5(amine_primary),amine_primary,amine_primary(9.0~11.0); amine_primary(9.0~11.0)
NCCCCCN,10.9,0:6,amine_primary:amine_primary,Pentamethylenediamine (Cadaverine),[HL]/[L][H],0.1,25.0,0:6,amine_primary:amine_primary,0(amine_primary) > 6(amine_primary),amine_primary,amine_primary(9.0~11.0); amine_primary(9.0~11.0)
NCCCCCN,10.99,0:6,amine_primary:amine_primary,Pentamethylenediamine (Cadaverine),[HL]/[L][H],0.5,25.0,0:6,amine_primary:amine_primary,0(amine_primary) > 6(amine_primary),amine_primary,amine_primary(9.0~11.0); amine_primary(9.0~11.0)
NCCCCCN,11.17,0:6,amine_primary:amine_primary,Pentamethylenediamine (Cadaverine),[HL]/[L][H],1.0,25.0,0:6,amine_primary:amine_primary,0(amine_primary) > 6(amine_primary),amine_primary,amine_primary(9.0~11.0); amine_primary(9.0~11.0)
NCCCCCN,10.8,0:6,amine_primary:amine_primary,Pentamethylenediamine (Cadaverine),[HL]/[L][H],0.0,25.0,0:6,amine_primary:amine_primary,0(amine_primary) > 6(amine_primary),amine_primary,amine_primary(9.0~11.0); amine_primary(9.0~11.0)
NCCCCCN,9.83,0:6,amine_primary:amine_primary,Pentamethylenediamine (Cadaverine),[H₂L]/[HL][H],0.1,25.0,0:6,amine_primary:amine_primary,0(amine_primary) > 6(amine_primary),amine_primary,amine_primary(9.0~11.0); amine_primary(9.0~11.0)