SMILES,pKa,Dissociable_Atoms,Functional_Group,Name,Dissociable_Atoms_Ordered,Functional_Group_Ordered,Dissociation_Order
OC(=O)CSCSCC(O)=O,3.82,0:9,carboxylic_acid:carboxylic_acid,(Methylenedithio)diacetic acid,0:9,carboxylic_acid:carboxylic_acid,0(carboxylic_acid) > 9(carboxylic_acid)
OC(=O)CSCSCC(O)=O,3.88,0:9,carboxylic_acid:carboxylic_acid,(Methylenedithio)diacetic acid,0:9,carboxylic_acid:carboxylic_acid,0(carboxylic_acid) > 9(carboxylic_acid)
OC(=O)CSCSCC(O)=O,3.92,0:9,carboxylic_acid:carboxylic_acid,(Methylenedithio)diacetic acid,0:9,carboxylic_acid:carboxylic_acid,0(carboxylic_acid) > 9(carboxylic_acid)
OC(=O)CSCSCC(O)=O,4.05,0:9,carboxylic_acid:carboxylic_acid,(Methylenedithio)diacetic acid,0:9,carboxylic_acid:carboxylic_acid,0(carboxylic_acid) > 9(carboxylic_acid)
OC(=O)CSCSCC(O)=O,4.03,0:9,carboxylic_acid:carboxylic_acid,(Methylenedithio)diacetic acid,0:9,carboxylic_acid:carboxylic_acid,0(carboxylic_acid) > 9(carboxylic_acid)
OC(=O)CSCSCC(O)=O,4.08,0:9,carboxylic_acid:carboxylic_acid,(Methylenedithio)diacetic acid,0:9,carboxylic_acid:carboxylic_acid,0(carboxylic_acid) > 9(carboxylic_acid)
OC(=O)CSCSCC(O)=O,4.34,0:9,carboxylic_acid:carboxylic_acid,(Methylenedithio)diacetic acid,0:9,carboxylic_acid:carboxylic_acid,0(carboxylic_acid) > 9(carboxylic_acid)
OC(=O)CSCSCC(O)=O,3.16,0:9,carboxylic_acid:carboxylic_acid,(Methylenedithio)diacetic acid,0:9,carboxylic_acid:carboxylic_acid,0(carboxylic_acid) > 9(carboxylic_acid)
OC(=O)CSCSCC(O)=O,3.09,0:9,carboxylic_acid:carboxylic_acid,(Methylenedithio)diacetic acid,0:9,carboxylic_acid:carboxylic_acid,0(carboxylic_acid) > 9(carboxylic_acid)
OC(=O)CSCSCC(O)=O,3.18,0:9,carboxylic_acid:carboxylic_acid,(Methylenedithio)diacetic acid,0:9,carboxylic_acid:carboxylic_acid,0(carboxylic_acid) > 9(carboxylic_acid)
OC(=O)CSCSCC(O)=O,3.1,0:9,carboxylic_acid:carboxylic_acid,(Methylenedithio)diacetic acid,0:9,carboxylic_acid:carboxylic_acid,0(carboxylic_acid) > 9(carboxylic_acid)
OC(=O)CSCSCC(O)=O,3.21,0:9,carboxylic_acid:carboxylic_acid,(Methylenedithio)diacetic acid,0:9,carboxylic_acid:carboxylic_acid,0(carboxylic_acid) > 9(carboxylic_acid)
OC(=O)CSCSCC(O)=O,3.23,0:9,carboxylic_acid:carboxylic_acid,(Methylenedithio)diacetic acid,0:9,carboxylic_acid:carboxylic_acid,0(carboxylic_acid) > 9(carboxylic_acid)
OC(=O)CSCSCC(O)=O,3.37,0:9,carboxylic_acid:carboxylic_acid,(Methylenedithio)diacetic acid,0:9,carboxylic_acid:carboxylic_acid,0(carboxylic_acid) > 9(carboxylic_acid)
OC(=O)CSCSCC(O)=O,3.31,0:9,carboxylic_acid:carboxylic_acid,(Methylenedithio)diacetic acid,0:9,carboxylic_acid:carboxylic_acid,0(carboxylic_acid) > 9(carboxylic_acid)
OC(=O)CCSCSCCC(O)=O,4.7,0:11,carboxylic_acid:carboxylic_acid,"3,3'-(Methylenedithio)dipropanoic acid",0:11,carboxylic_acid:carboxylic_acid,0(carboxylic_acid) > 11(carboxylic_acid)
OC(=O)CCSCSCCC(O)=O,3.9,0:11,carboxylic_acid:carboxylic_acid,"3,3'-(Methylenedithio)dipropanoic acid",0:11,carboxylic_acid:carboxylic_acid,0(carboxylic_acid) > 11(carboxylic_acid)
OC(=O)CSCCSCC(O)=O,3.98,0:10,carboxylic_acid:carboxylic_acid,(Ethylenedithio)diacetic acid,0:10,carboxylic_acid:carboxylic_acid,0(carboxylic_acid) > 10(carboxylic_acid)
OC(=O)CSCCSCC(O)=O,4.0,0:10,carboxylic_acid:carboxylic_acid,(Ethylenedithio)diacetic acid,0:10,carboxylic_acid:carboxylic_acid,0(carboxylic_acid) > 10(carboxylic_acid)
OC(=O)CSCCSCC(O)=O,3.83,0:10,carboxylic_acid:carboxylic_acid,(Ethylenedithio)diacetic acid,0:10,carboxylic_acid:carboxylic_acid,0(carboxylic_acid) > 10(carboxylic_acid)
OC(=O)CSCCSCC(O)=O,3.9,0:10,carboxylic_acid:carboxylic_acid,(Ethylenedithio)diacetic acid,0:10,carboxylic_acid:carboxylic_acid,0(carboxylic_acid) > 10(carboxylic_acid)
OC(=O)CSCCSCC(O)=O,3.82,0:10,carboxylic_acid:carboxylic_acid,(Ethylenedithio)diacetic acid,0:10,carboxylic_acid:carboxylic_acid,0(carboxylic_acid) > 10(carboxylic_acid)
OC(=O)CSCCSCC(O)=O,3.87,0:10,carboxylic_acid:carboxylic_acid,(Ethylenedithio)diacetic acid,0:10,carboxylic_acid:carboxylic_acid,0(carboxylic_acid) > 10(carboxylic_acid)
OC(=O)CSCCSCC(O)=O,3.91,0:10,carboxylic_acid:carboxylic_acid,(Ethylenedithio)diacetic acid,0:10,carboxylic_acid:carboxylic_acid,0(carboxylic_acid) > 10(carboxylic_acid)
OC(=O)CSCCSCC(O)=O,3.94,0:10,carboxylic_acid:carboxylic_acid,(Ethylenedithio)diacetic acid,0:10,carboxylic_acid:carboxylic_acid,0(carboxylic_acid) > 10(carboxylic_acid)
OC(=O)CSCCSCC(O)=O,4.1,0:10,carboxylic_acid:carboxylic_acid,(Ethylenedithio)diacetic acid,0:10,carboxylic_acid:carboxylic_acid,0(carboxylic_acid) > 10(carboxylic_acid)
OC(=O)CSCCSCC(O)=O,4.06,0:10,carboxylic_acid:carboxylic_acid,(Ethylenedithio)diacetic acid,0:10,carboxylic_acid:carboxylic_acid,0(carboxylic_acid) > 10(carboxylic_acid)
OC(=O)CSCCSCC(O)=O,4.11,0:10,carboxylic_acid:carboxylic_acid,(Ethylenedithio)diacetic acid,0:10,carboxylic_acid:carboxylic_acid,0(carboxylic_acid) > 10(carboxylic_acid)
OC(=O)CSCCSCC(O)=O,4.35,0:10,carboxylic_acid:carboxylic_acid,(Ethylenedithio)diacetic acid,0:10,carboxylic_acid:carboxylic_acid,0(carboxylic_acid) > 10(carboxylic_acid)
OC(=O)CSCCSCC(O)=O,3.21,0:10,carboxylic_acid:carboxylic_acid,(Ethylenedithio)diacetic acid,0:10,carboxylic_acid:carboxylic_acid,0(carboxylic_acid) > 10(carboxylic_acid)
OC(=O)CSCCSCC(O)=O,3.2,0:10,carboxylic_acid:carboxylic_acid,(Ethylenedithio)diacetic acid,0:10,carboxylic_acid:carboxylic_acid,0(carboxylic_acid) > 10(carboxylic_acid)
OC(=O)CSCCSCC(O)=O,3.14,0:10,carboxylic_acid:carboxylic_acid,(Ethylenedithio)diacetic acid,0:10,carboxylic_acid:carboxylic_acid,0(carboxylic_acid) > 10(carboxylic_acid)
OC(=O)CSCCSCC(O)=O,3.19,0:10,carboxylic_acid:carboxylic_acid,(Ethylenedithio)diacetic acid,0:10,carboxylic_acid:carboxylic_acid,0(carboxylic_acid) > 10(carboxylic_acid)
OC(=O)CSCCSCC(O)=O,3.16,0:10,carboxylic_acid:carboxylic_acid,(Ethylenedithio)diacetic acid,0:10,carboxylic_acid:carboxylic_acid,0(carboxylic_acid) > 10(carboxylic_acid)
OC(=O)CSCCSCC(O)=O,3.26,0:10,carboxylic_acid:carboxylic_acid,(Ethylenedithio)diacetic acid,0:10,carboxylic_acid:carboxylic_acid,0(carboxylic_acid) > 10(carboxylic_acid)
OC(=O)CSCCSCC(O)=O,3.24,0:10,carboxylic_acid:carboxylic_acid,(Ethylenedithio)diacetic acid,0:10,carboxylic_acid:carboxylic_acid,0(carboxylic_acid) > 10(carboxylic_acid)
OC(=O)CSCCSCC(O)=O,3.29,0:10,carboxylic_acid:carboxylic_acid,(Ethylenedithio)diacetic acid,0:10,carboxylic_acid:carboxylic_acid,0(carboxylic_acid) > 10(carboxylic_acid)
OC(=O)CSCCSCC(O)=O,3.46,0:10,carboxylic_acid:carboxylic_acid,(Ethylenedithio)diacetic acid,0:10,carboxylic_acid:carboxylic_acid,0(carboxylic_acid) > 10(carboxylic_acid)
OC(=O)CSCCSCC(O)=O,3.41,0:10,carboxylic_acid:carboxylic_acid,(Ethylenedithio)diacetic acid,0:10,carboxylic_acid:carboxylic_acid,0(carboxylic_acid) > 10(carboxylic_acid)
OC(=O)CSCCSCC(O)=O,3.38,0:10,carboxylic_acid:carboxylic_acid,(Ethylenedithio)diacetic acid,0:10,carboxylic_acid:carboxylic_acid,0(carboxylic_acid) > 10(carboxylic_acid)
OC(=O)CSCCCSCC(O)=O,4.02,0:11,carboxylic_acid:carboxylic_acid,(Trimethylenedithio)diacetic acid,0:11,carboxylic_acid:carboxylic_acid,0(carboxylic_acid) > 11(carboxylic_acid)
OC(=O)CSCCCSCC(O)=O,3.9,0:11,carboxylic_acid:carboxylic_acid,(Trimethylenedithio)diacetic acid,0:11,carboxylic_acid:carboxylic_acid,0(carboxylic_acid) > 11(carboxylic_acid)
OC(=O)CSCCCSCC(O)=O,3.89,0:11,carboxylic_acid:carboxylic_acid,(Trimethylenedithio)diacetic acid,0:11,carboxylic_acid:carboxylic_acid,0(carboxylic_acid) > 11(carboxylic_acid)
OC(=O)CSCCCSCC(O)=O,3.98,0:11,carboxylic_acid:carboxylic_acid,(Trimethylenedithio)diacetic acid,0:11,carboxylic_acid:carboxylic_acid,0(carboxylic_acid) > 11(carboxylic_acid)
OC(=O)CSCCCSCC(O)=O,4.17,0:11,carboxylic_acid:carboxylic_acid,(Trimethylenedithio)diacetic acid,0:11,carboxylic_acid:carboxylic_acid,0(carboxylic_acid) > 11(carboxylic_acid)
OC(=O)CSCCCSCC(O)=O,4.1,0:11,carboxylic_acid:carboxylic_acid,(Trimethylenedithio)diacetic acid,0:11,carboxylic_acid:carboxylic_acid,0(carboxylic_acid) > 11(carboxylic_acid)
OC(=O)CSCCCSCC(O)=O,4.18,0:11,carboxylic_acid:carboxylic_acid,(Trimethylenedithio)diacetic acid,0:11,carboxylic_acid:carboxylic_acid,0(carboxylic_acid) > 11(carboxylic_acid)
OC(=O)CSCCCSCC(O)=O,4.38,0:11,carboxylic_acid:carboxylic_acid,(Trimethylenedithio)diacetic acid,0:11,carboxylic_acid:carboxylic_acid,0(carboxylic_acid) > 11(carboxylic_acid)
OC(=O)CSCCCSCC(O)=O,3.27,0:11,carboxylic_acid:carboxylic_acid,(Trimethylenedithio)diacetic acid,0:11,carboxylic_acid:carboxylic_acid,0(carboxylic_acid) > 11(carboxylic_acid)
OC(=O)CSCCCSCC(O)=O,3.21,0:11,carboxylic_acid:carboxylic_acid,(Trimethylenedithio)diacetic acid,0:11,carboxylic_acid:carboxylic_acid,0(carboxylic_acid) > 11(carboxylic_acid)
OC(=O)CSCCCSCC(O)=O,3.31,0:11,carboxylic_acid:carboxylic_acid,(Trimethylenedithio)diacetic acid,0:11,carboxylic_acid:carboxylic_acid,0(carboxylic_acid) > 11(carboxylic_acid)
OC(=O)CSCCCSCC(O)=O,3.35,0:11,carboxylic_acid:carboxylic_acid,(Trimethylenedithio)diacetic acid,0:11,carboxylic_acid:carboxylic_acid,0(carboxylic_acid) > 11(carboxylic_acid)
OC(=O)CSCCCSCC(O)=O,3.5,0:11,carboxylic_acid:carboxylic_acid,(Trimethylenedithio)diacetic acid,0:11,carboxylic_acid:carboxylic_acid,0(carboxylic_acid) > 11(carboxylic_acid)
OC(=O)CSCCCSCC(O)=O,3.48,0:11,carboxylic_acid:carboxylic_acid,(Trimethylenedithio)diacetic acid,0:11,carboxylic_acid:carboxylic_acid,0(carboxylic_acid) > 11(carboxylic_acid)
OC(=O)CSCCCSCC(O)=O,3.52,0:11,carboxylic_acid:carboxylic_acid,(Trimethylenedithio)diacetic acid,0:11,carboxylic_acid:carboxylic_acid,0(carboxylic_acid) > 11(carboxylic_acid)
OC(=O)CSCCCSCC(O)=O,3.44,0:11,carboxylic_acid:carboxylic_acid,(Trimethylenedithio)diacetic acid,0:11,carboxylic_acid:carboxylic_acid,0(carboxylic_acid) > 11(carboxylic_acid)
OC(=O)CSCCCCSCC(O)=O,4.05,0:12,carboxylic_acid:carboxylic_acid,(Tetramethylenedithio)diacetic acid,0:12,carboxylic_acid:carboxylic_acid,0(carboxylic_acid) > 12(carboxylic_acid)
OC(=O)CSCCCCSCC(O)=O,3.94,0:12,carboxylic_acid:carboxylic_acid,(Tetramethylenedithio)diacetic acid,0:12,carboxylic_acid:carboxylic_acid,0(carboxylic_acid) > 12(carboxylic_acid)
OC(=O)CSCCCCSCC(O)=O,4.02,0:12,carboxylic_acid:carboxylic_acid,(Tetramethylenedithio)diacetic acid,0:12,carboxylic_acid:carboxylic_acid,0(carboxylic_acid) > 12(carboxylic_acid)
OC(=O)CSCCCCSCC(O)=O,4.06,0:12,carboxylic_acid:carboxylic_acid,(Tetramethylenedithio)diacetic acid,0:12,carboxylic_acid:carboxylic_acid,0(carboxylic_acid) > 12(carboxylic_acid)
OC(=O)CSCCCCSCC(O)=O,4.19,0:12,carboxylic_acid:carboxylic_acid,(Tetramethylenedithio)diacetic acid,0:12,carboxylic_acid:carboxylic_acid,0(carboxylic_acid) > 12(carboxylic_acid)
OC(=O)CSCCCCSCC(O)=O,4.21,0:12,carboxylic_acid:carboxylic_acid,(Tetramethylenedithio)diacetic acid,0:12,carboxylic_acid:carboxylic_acid,0(carboxylic_acid) > 12(carboxylic_acid)
OC(=O)CSCCCCSCC(O)=O,4.42,0:12,carboxylic_acid:carboxylic_acid,(Tetramethylenedithio)diacetic acid,0:12,carboxylic_acid:carboxylic_acid,0(carboxylic_acid) > 12(carboxylic_acid)
OC(=O)CSCCCCSCC(O)=O,3.28,0:12,carboxylic_acid:carboxylic_acid,(Tetramethylenedithio)diacetic acid,0:12,carboxylic_acid:carboxylic_acid,0(carboxylic_acid) > 12(carboxylic_acid)
OC(=O)CSCCCCSCC(O)=O,3.23,0:12,carboxylic_acid:carboxylic_acid,(Tetramethylenedithio)diacetic acid,0:12,carboxylic_acid:carboxylic_acid,0(carboxylic_acid) > 12(carboxylic_acid)
OC(=O)CSCCCCSCC(O)=O,3.25,0:12,carboxylic_acid:carboxylic_acid,(Tetramethylenedithio)diacetic acid,0:12,carboxylic_acid:carboxylic_acid,0(carboxylic_acid) > 12(carboxylic_acid)
OC(=O)CSCCCCSCC(O)=O,3.35,0:12,carboxylic_acid:carboxylic_acid,(Tetramethylenedithio)diacetic acid,0:12,carboxylic_acid:carboxylic_acid,0(carboxylic_acid) > 12(carboxylic_acid)
OC(=O)CSCCCCSCC(O)=O,3.38,0:12,carboxylic_acid:carboxylic_acid,(Tetramethylenedithio)diacetic acid,0:12,carboxylic_acid:carboxylic_acid,0(carboxylic_acid) > 12(carboxylic_acid)
OC(=O)CSCCCCSCC(O)=O,3.5,0:12,carboxylic_acid:carboxylic_acid,(Tetramethylenedithio)diacetic acid,0:12,carboxylic_acid:carboxylic_acid,0(carboxylic_acid) > 12(carboxylic_acid)
OC(=O)CSCCCCSCC(O)=O,3.57,0:12,carboxylic_acid:carboxylic_acid,(Tetramethylenedithio)diacetic acid,0:12,carboxylic_acid:carboxylic_acid,0(carboxylic_acid) > 12(carboxylic_acid)
OC(=O)CSCCCCSCC(O)=O,3.46,0:12,carboxylic_acid:carboxylic_acid,(Tetramethylenedithio)diacetic acid,0:12,carboxylic_acid:carboxylic_acid,0(carboxylic_acid) > 12(carboxylic_acid)
OC(=O)CSCCCCCSCC(O)=O,4.05,0:13,carboxylic_acid:carboxylic_acid,(Pentamethylenedithio)diacetic acid,0:13,carboxylic_acid:carboxylic_acid,0(carboxylic_acid) > 13(carboxylic_acid)
OC(=O)CSCCCCCSCC(O)=O,3.93,0:13,carboxylic_acid:carboxylic_acid,(Pentamethylenedithio)diacetic acid,0:13,carboxylic_acid:carboxylic_acid,0(carboxylic_acid) > 13(carboxylic_acid)
OC(=O)CSCCCCCSCC(O)=O,4.04,0:13,carboxylic_acid:carboxylic_acid,(Pentamethylenedithio)diacetic acid,0:13,carboxylic_acid:carboxylic_acid,0(carboxylic_acid) > 13(carboxylic_acid)
OC(=O)CSCCCCCSCC(O)=O,4.2,0:13,carboxylic_acid:carboxylic_acid,(Pentamethylenedithio)diacetic acid,0:13,carboxylic_acid:carboxylic_acid,0(carboxylic_acid) > 13(carboxylic_acid)
OC(=O)CSCCCCCSCC(O)=O,4.22,0:13,carboxylic_acid:carboxylic_acid,(Pentamethylenedithio)diacetic acid,0:13,carboxylic_acid:carboxylic_acid,0(carboxylic_acid) > 13(carboxylic_acid)
OC(=O)CSCCCCCSCC(O)=O,4.41,0:13,carboxylic_acid:carboxylic_acid,(Pentamethylenedithio)diacetic acid,0:13,carboxylic_acid:carboxylic_acid,0(carboxylic_acid) > 13(carboxylic_acid)
OC(=O)CSCCCCCSCC(O)=O,3.3,0:13,carboxylic_acid:carboxylic_acid,(Pentamethylenedithio)diacetic acid,0:13,carboxylic_acid:carboxylic_acid,0(carboxylic_acid) > 13(carboxylic_acid)
OC(=O)CSCCCCCSCC(O)=O,3.24,0:13,carboxylic_acid:carboxylic_acid,(Pentamethylenedithio)diacetic acid,0:13,carboxylic_acid:carboxylic_acid,0(carboxylic_acid) > 13(carboxylic_acid)
OC(=O)CSCCCCCSCC(O)=O,3.27,0:13,carboxylic_acid:carboxylic_acid,(Pentamethylenedithio)diacetic acid,0:13,carboxylic_acid:carboxylic_acid,0(carboxylic_acid) > 13(carboxylic_acid)
OC(=O)CSCCCCCSCC(O)=O,3.36,0:13,carboxylic_acid:carboxylic_acid,(Pentamethylenedithio)diacetic acid,0:13,carboxylic_acid:carboxylic_acid,0(carboxylic_acid) > 13(carboxylic_acid)
OC(=O)CSCCCCCSCC(O)=O,3.42,0:13,carboxylic_acid:carboxylic_acid,(Pentamethylenedithio)diacetic acid,0:13,carboxylic_acid:carboxylic_acid,0(carboxylic_acid) > 13(carboxylic_acid)
OC(=O)CSCCCCCSCC(O)=O,3.55,0:13,carboxylic_acid:carboxylic_acid,(Pentamethylenedithio)diacetic acid,0:13,carboxylic_acid:carboxylic_acid,0(carboxylic_acid) > 13(carboxylic_acid)
OC(=O)CSCCCCCSCC(O)=O,3.6,0:13,carboxylic_acid:carboxylic_acid,(Pentamethylenedithio)diacetic acid,0:13,carboxylic_acid:carboxylic_acid,0(carboxylic_acid) > 13(carboxylic_acid)
OC(=O)CSCCCCCSCC(O)=O,3.49,0:13,carboxylic_acid:carboxylic_acid,(Pentamethylenedithio)diacetic acid,0:13,carboxylic_acid:carboxylic_acid,0(carboxylic_acid) > 13(carboxylic_acid)
OC(=O)C[S](=O)(=O)CC(O)=O,2.7,0:9,carboxylic_acid:carboxylic_acid,Sulfonyldiacetic acid,0:9,carboxylic_acid:carboxylic_acid,0(carboxylic_acid) > 9(carboxylic_acid)
OC(=O)C[S](=O)(=O)CC(O)=O,1.8,0:9,carboxylic_acid:carboxylic_acid,Sulfonyldiacetic acid,0:9,carboxylic_acid:carboxylic_acid,0(carboxylic_acid) > 9(carboxylic_acid)
OC(=O)C[Se]CC(O)=O,4.34,0:7,carboxylic_acid:carboxylic_acid,Selenodiacetic acid,0:7,carboxylic_acid:carboxylic_acid,0(carboxylic_acid) > 7(carboxylic_acid)
OC(=O)C[Se]CC(O)=O,4.67,0:7,carboxylic_acid:carboxylic_acid,Selenodiacetic acid,0:7,carboxylic_acid:carboxylic_acid,0(carboxylic_acid) > 7(carboxylic_acid)
OC(=O)C[Se]CC(O)=O,3.31,0:7,carboxylic_acid:carboxylic_acid,Selenodiacetic acid,0:7,carboxylic_acid:carboxylic_acid,0(carboxylic_acid) > 7(carboxylic_acid)
OC(=O)C[Se]CC(O)=O,3.57,0:7,carboxylic_acid:carboxylic_acid,Selenodiacetic acid,0:7,carboxylic_acid:carboxylic_acid,0(carboxylic_acid) > 7(carboxylic_acid)
OC(=O)CC[Se]CCC(O)=O,4.7,0:9,carboxylic_acid:carboxylic_acid,"3,3'-Selenodipropanoic acid",0:9,carboxylic_acid:carboxylic_acid,0(carboxylic_acid) > 9(carboxylic_acid)
OC(=O)CC[Se]CCC(O)=O,5.15,0:9,carboxylic_acid:carboxylic_acid,"3,3'-Selenodipropanoic acid",0:9,carboxylic_acid:carboxylic_acid,0(carboxylic_acid) > 9(carboxylic_acid)
OC(=O)CC[Se]CCC(O)=O,3.94,0:9,carboxylic_acid:carboxylic_acid,"3,3'-Selenodipropanoic acid",0:9,carboxylic_acid:carboxylic_acid,0(carboxylic_acid) > 9(carboxylic_acid)
OC(=O)CC[Se]CCC(O)=O,4.19,0:9,carboxylic_acid:carboxylic_acid,"3,3'-Selenodipropanoic acid",0:9,carboxylic_acid:carboxylic_acid,0(carboxylic_acid) > 9(carboxylic_acid)
OC(=O)C[Te]CC(O)=O,4.77,0:7,carboxylic_acid:carboxylic_acid,Tellurodiacetic acid,0:7,carboxylic_acid:carboxylic_acid,0(carboxylic_acid) > 7(carboxylic_acid)
OC(=O)C[Te]CC(O)=O,3.26,0:7,carboxylic_acid:carboxylic_acid,Tellurodiacetic acid,0:7,carboxylic_acid:carboxylic_acid,0(carboxylic_acid) > 7(carboxylic_acid)
OC(=O)CC[Te]CCC(O)=O,4.77,0:9,carboxylic_acid:carboxylic_acid,"3,3'-Tellurodipropanoic acid",0:9,carboxylic_acid:carboxylic_acid,0(carboxylic_acid) > 9(carboxylic_acid)
OC(=O)CC[Te]CCC(O)=O,3.92,0:9,carboxylic_acid:carboxylic_acid,"3,3'-Tellurodipropanoic acid",0:9,carboxylic_acid:carboxylic_acid,0(carboxylic_acid) > 9(carboxylic_acid)