SMILES,pKa,Dissociable_Atoms,Functional_Group,Name,Equilibrium,Ionic,Temperature,Dissociable_Atoms_Ordered,Functional_Group_Ordered,Dissociation_Order,Dissociating_Group,Functional_Group_pKa_Ranges
NCC(O)c1ccccc1,8.79,0,amine_primary,DL-2-Amino-1-phenylethanol,[HL]/[L][H],0.1,25.0,0,amine_primary,0(amine_primary),amine_primary,amine_primary(9.0~11.0)
COC(=O)C(N)CO,7.07,5,amine_primary,DL-Serine methyl ester,[HL]/[L][H],0.1,25.0,5,amine_primary,5(amine_primary),amine_primary,amine_primary(9.0~11.0)
COC(=O)C(N)CO,7.03,5,amine_primary,DL-Serine methyl ester,[HL]/[L][H],0.0,25.0,5,amine_primary,5(amine_primary),amine_primary,amine_primary(9.0~11.0)
NCC(O)CO,9.26,0,amine_primary,"3-Amino-1,2-propanediol",[HL]/[L][H],0.5,25.0,0,amine_primary,0(amine_primary),amine_primary,amine_primary(9.0~11.0)
NC(CO)(CO)CO,8.1,0,amine_primary,"2-Amino-2-hydroxymethyl-1,3-propanediol (THAM)(TRIS)",[HL]/[L][H],0.1,25.0,0,amine_primary,0(amine_primary),amine_primary,amine_primary(9.0~11.0)
NC(CO)(CO)CO,7.77,0,amine_primary,"2-Amino-2-hydroxymethyl-1,3-propanediol (THAM)(TRIS)",[HL]/[L][H],0.15,37.0,0,amine_primary,0(amine_primary),amine_primary,amine_primary(9.0~11.0)
NC(CO)(CO)CO,8.18,0,amine_primary,"2-Amino-2-hydroxymethyl-1,3-propanediol (THAM)(TRIS)",[HL]/[L][H],0.5,25.0,0,amine_primary,0(amine_primary),amine_primary,amine_primary(9.0~11.0)
NC(CO)(CO)CO,8.21,0,amine_primary,"2-Amino-2-hydroxymethyl-1,3-propanediol (THAM)(TRIS)",[HL]/[L][H],0.7,25.0,0,amine_primary,0(amine_primary),amine_primary,amine_primary(9.0~11.0)
NC(CO)(CO)CO,8.21,0,amine_primary,"2-Amino-2-hydroxymethyl-1,3-propanediol (THAM)(TRIS)",[HL]/[L][H],1.0,25.0,0,amine_primary,0(amine_primary),amine_primary,amine_primary(9.0~11.0)
NC(CO)(CO)CO,8.25,0,amine_primary,"2-Amino-2-hydroxymethyl-1,3-propanediol (THAM)(TRIS)",[HL]/[L][H],1.0,25.0,0,amine_primary,0(amine_primary),amine_primary,amine_primary(9.0~11.0)
NC(CO)(CO)CO,8.29,0,amine_primary,"2-Amino-2-hydroxymethyl-1,3-propanediol (THAM)(TRIS)",[HL]/[L][H],1.0,25.0,0,amine_primary,0(amine_primary),amine_primary,amine_primary(9.0~11.0)
NC(CO)(CO)CO,8.32,0,amine_primary,"2-Amino-2-hydroxymethyl-1,3-propanediol (THAM)(TRIS)",[HL]/[L][H],1.0,25.0,0,amine_primary,0(amine_primary),amine_primary,amine_primary(9.0~11.0)
NC(CO)(CO)CO,8.4,0,amine_primary,"2-Amino-2-hydroxymethyl-1,3-propanediol (THAM)(TRIS)",[HL]/[L][H],2.0,25.0,0,amine_primary,0(amine_primary),amine_primary,amine_primary(9.0~11.0)
NC(CO)(CO)CO,8.41,0,amine_primary,"2-Amino-2-hydroxymethyl-1,3-propanediol (THAM)(TRIS)",[HL]/[L][H],2.0,25.0,0,amine_primary,0(amine_primary),amine_primary,amine_primary(9.0~11.0)
NC(CO)(CO)CO,8.44,0,amine_primary,"2-Amino-2-hydroxymethyl-1,3-propanediol (THAM)(TRIS)",[HL]/[L][H],2.0,25.0,0,amine_primary,0(amine_primary),amine_primary,amine_primary(9.0~11.0)
NC(CO)(CO)CO,8.63,0,amine_primary,"2-Amino-2-hydroxymethyl-1,3-propanediol (THAM)(TRIS)",[HL]/[L][H],3.0,25.0,0,amine_primary,0(amine_primary),amine_primary,amine_primary(9.0~11.0)
NC(CO)(CO)CO,8.67,0,amine_primary,"2-Amino-2-hydroxymethyl-1,3-propanediol (THAM)(TRIS)",[HL]/[L][H],3.0,25.0,0,amine_primary,0(amine_primary),amine_primary,amine_primary(9.0~11.0)
NC(CO)(CO)CO,8.79,0,amine_primary,"2-Amino-2-hydroxymethyl-1,3-propanediol (THAM)(TRIS)",[HL]/[L][H],4.0,25.0,0,amine_primary,0(amine_primary),amine_primary,amine_primary(9.0~11.0)
NC(CO)(CO)CO,8.94,0,amine_primary,"2-Amino-2-hydroxymethyl-1,3-propanediol (THAM)(TRIS)",[HL]/[L][H],4.0,25.0,0,amine_primary,0(amine_primary),amine_primary,amine_primary(9.0~11.0)
NC(CO)(CO)CO,9.0,0,amine_primary,"2-Amino-2-hydroxymethyl-1,3-propanediol (THAM)(TRIS)",[HL]/[L][H],5.0,25.0,0,amine_primary,0(amine_primary),amine_primary,amine_primary(9.0~11.0)
NC(CO)(CO)CO,9.13,0,amine_primary,"2-Amino-2-hydroxymethyl-1,3-propanediol (THAM)(TRIS)",[HL]/[L][H],5.0,25.0,0,amine_primary,0(amine_primary),amine_primary,amine_primary(9.0~11.0)
NC(CO)(CO)CO,8.516,0,amine_primary,"2-Amino-2-hydroxymethyl-1,3-propanediol (THAM)(TRIS)",[HL]/[L][H],0.0,10.0,0,amine_primary,0(amine_primary),amine_primary,amine_primary(9.0~11.0)
NC(CO)(CO)CO,8.074,0,amine_primary,"2-Amino-2-hydroxymethyl-1,3-propanediol (THAM)(TRIS)",[HL]/[L][H],0.0,25.0,0,amine_primary,0(amine_primary),amine_primary,amine_primary(9.0~11.0)
NC(CO)(CO)CO,7.677,0,amine_primary,"2-Amino-2-hydroxymethyl-1,3-propanediol (THAM)(TRIS)",[HL]/[L][H],0.0,40.0,0,amine_primary,0(amine_primary),amine_primary,amine_primary(9.0~11.0)
N[C@H]1C(O)O[C@H](CO)[C@@H](O)[C@@H]1O,7.58,0,amine_primary,2-Amino-2-deoxy-D-glucopyranose (D-Glucosamine),[HL]/[L][H],0.1,25.0,0,amine_primary,0(amine_primary),amine_primary,amine_primary(9.0~11.0)
N[C@H]1C(O)O[C@H](CO)[C@@H](O)[C@@H]1O,7.42,0,amine_primary,2-Amino-2-deoxy-D-glucopyranose (D-Glucosamine),[HL]/[L][H],0.1,30.0,0,amine_primary,0(amine_primary),amine_primary,amine_primary(9.0~11.0)
N[C@H]1C(O)O[C@H](CO)[C@@H](O)[C@@H]1O,7.27,0,amine_primary,2-Amino-2-deoxy-D-glucopyranose (D-Glucosamine),[HL]/[L][H],0.15,37.0,0,amine_primary,0(amine_primary),amine_primary,amine_primary(9.0~11.0)
N[C@H]1C(O)O[C@H](CO)[C@H](O)[C@@H]1O,7.72,0,amine_primary,D-Galactosamine,[HL]/[L][H],0.1,25.0,0,amine_primary,0(amine_primary),amine_primary,amine_primary(9.0~11.0)
N[C@H]1C(O)O[C@H](CO)[C@H](O)[C@@H]1O,7.61,0,amine_primary,D-Galactosamine,[HL]/[L][H],0.1,30.0,0,amine_primary,0(amine_primary),amine_primary,amine_primary(9.0~11.0)
N[C@@H]1C(O)O[C@H](CO)[C@@H](O)[C@@H]1O,7.57,0,amine_primary,D-Mannosamine,[HL]/[L][H],0.1,25.0,0,amine_primary,0(amine_primary),amine_primary,amine_primary(9.0~11.0)
N[C@@H]1C(O)O[C@H](CO)[C@@H](O)[C@@H]1O,7.5,0,amine_primary,D-Mannosamine,[HL]/[L][H],0.1,30.0,0,amine_primary,0(amine_primary),amine_primary,amine_primary(9.0~11.0)
CON,4.62,2,amine_primary,Methoxyamine,[HL]/[L][H],0.1,25.0,2,amine_primary,2(amine_primary),amine_primary,amine_primary(9.0~11.0)
CON,4.74,2,amine_primary,Methoxyamine,[HL]/[L][H],1.0,25.0,2,amine_primary,2(amine_primary),amine_primary,amine_primary(9.0~11.0)
COCCN,9.45,4,amine_primary,2-Methoxyethylamine,[HL]/[L][H],0.1,25.0,4,amine_primary,4(amine_primary),amine_primary,amine_primary(9.0~11.0)
COCCN,9.45,4,amine_primary,2-Methoxyethylamine,[HL]/[L][H],0.5,25.0,4,amine_primary,4(amine_primary),amine_primary,amine_primary(9.0~11.0)
COCCN,9.62,4,amine_primary,2-Methoxyethylamine,[HL]/[L][H],1.0,25.0,4,amine_primary,4(amine_primary),amine_primary,amine_primary(9.0~11.0)
COCCN,9.45,4,amine_primary,2-Methoxyethylamine,[HL]/[L][H],1.0,30.0,4,amine_primary,4(amine_primary),amine_primary,amine_primary(9.0~11.0)
COCCN,9.43,4,amine_primary,2-Methoxyethylamine,[HL]/[L][H],0.0,25.0,4,amine_primary,4(amine_primary),amine_primary,amine_primary(9.0~11.0)
NCCOCCO,9.42,0,amine_primary,2-(2-Aminoethoxy)ethanol (Diglycolamine),[HL]/[L][H],0.0,25.0,0,amine_primary,0(amine_primary),amine_primary,amine_primary(9.0~11.0)
COc1ccc(CN)cc1,9.56,7,amine_primary,4-Methoxybenzylamine,[HL]/[L][H],0.1,25.0,7,amine_primary,7(amine_primary),amine_primary,amine_primary(9.0~11.0)
COc1ccc(CCN)cc1OC,9.87,8,amine_primary,"2-(3,4-Dimethoxyphenyl)ethylamine",[HL]/[L][H],0.1,25.0,8,amine_primary,8(amine_primary),amine_primary,amine_primary(9.0~11.0)
COC(=O)CN,7.66,5,amine_primary,Glycine methyl ester,[HL]/[L][H],0.1,25.0,5,amine_primary,5(amine_primary),amine_primary,amine_primary(9.0~11.0)
CCOC(=O)CN,7.69,6,amine_primary,Glycine ethyl ester,[HL]/[L][H],0.1,25.0,6,amine_primary,6(amine_primary),amine_primary,amine_primary(9.0~11.0)
CCOC(=O)CN,7.78,6,amine_primary,Glycine ethyl ester,[HL]/[L][H],0.5,25.0,6,amine_primary,6(amine_primary),amine_primary,amine_primary(9.0~11.0)
CCOC(=O)CN,7.66,6,amine_primary,Glycine ethyl ester,[HL]/[L][H],1.0,30.0,6,amine_primary,6(amine_primary),amine_primary,amine_primary(9.0~11.0)
CCCCOC(=O)CN,7.78,8,amine_primary,Glycine butyl ester,[HL]/[L][H],0.1,25.0,8,amine_primary,8(amine_primary),amine_primary,amine_primary(9.0~11.0)
COC(=O)C(C)N,7.76,6,amine_primary,DL-Alanine methyl ester,[HL]/[L][H],0.1,25.0,6,amine_primary,6(amine_primary),amine_primary,amine_primary(9.0~11.0)
CCOC(=O)C(C)N,7.91,7,amine_primary,DL-Alanine ethyl ester,[HL]/[L][H],0.1,25.0,7,amine_primary,7(amine_primary),amine_primary,amine_primary(9.0~11.0)
CCCC(N)C(=O)OC,7.66,4,amine_primary,DL-Norvaline methyl ester,[HL]/[L][H],0.1,25.0,4,amine_primary,4(amine_primary),amine_primary,amine_primary(9.0~11.0)
CCCCC(N)C(=O)OC,7.68,5,amine_primary,DL-Norleucine methyl ester,[HL]/[L][H],0.1,25.0,5,amine_primary,5(amine_primary),amine_primary,amine_primary(9.0~11.0)
COC(=O)C(N)C(C)C,7.48,5,amine_primary,DL-Valine methyl ester,[HL]/[L][H],0.1,25.0,5,amine_primary,5(amine_primary),amine_primary,amine_primary(9.0~11.0)
CCOC(=O)C(N)C(C)C,7.75,6,amine_primary,DL-Valine ethyl ester,[HL]/[L][H],0.1,25.0,6,amine_primary,6(amine_primary),amine_primary,amine_primary(9.0~11.0)
COC(=O)C(N)CC(C)C,7.63,5,amine_primary,DL-Leucine methyl ester,[HL]/[L][H],0.1,25.0,5,amine_primary,5(amine_primary),amine_primary,amine_primary(9.0~11.0)
CCOC(=O)C(N)CC(C)C,7.65,6,amine_primary,DL-Leucine ethyl ester,[HL]/[L][H],0.1,25.0,6,amine_primary,6(amine_primary),amine_primary,amine_primary(9.0~11.0)
CCC(C)C(N)C(=O)OC,7.54,5,amine_primary,DL-Isoleucine methyl ester,[HL]/[L][H],0.1,25.0,5,amine_primary,5(amine_primary),amine_primary,amine_primary(9.0~11.0)
COC(=O)[C@@H](N)Cc1ccccc1,7.03,5,amine_primary,L-Phenylalanine methyl ester,[HL]/[L][H],0.1,25.0,5,amine_primary,5(amine_primary),amine_primary,amine_primary(9.0~11.0)
COC(=O)[C@@H](N)Cc1ccccc1,6.72,5,amine_primary,L-Phenylalanine methyl ester,[HL]/[L][H],0.15,37.0,5,amine_primary,5(amine_primary),amine_primary,amine_primary(9.0~11.0)
CCOC(=O)C(N)Cc1ccccc1,7.12,6,amine_primary,DL-Phenylalanine ethyl ester,[HL]/[L][H],0.1,25.0,6,amine_primary,6(amine_primary),amine_primary,amine_primary(9.0~11.0)
COC(=O)CCC(N)C(=O)OC,7.03,7,amine_primary,DL-Glutamic acid dimethyl ester,[HL]/[L][H],0.1,25.0,7,amine_primary,7(amine_primary),amine_primary,amine_primary(9.0~11.0)
CCOC(=O)CCC(N)C(=O)OCC,7.035,8,amine_primary,DL-Glutamic acid diethyl ester,[HL]/[L][H],0.0,25.0,8,amine_primary,8(amine_primary),amine_primary,amine_primary(9.0~11.0)
COC(=O)CCN,9.17,6,amine_primary,3-Aminopropanoic acid methyl ester,[HL]/[L][H],0.1,25.0,6,amine_primary,6(amine_primary),amine_primary,amine_primary(9.0~11.0)
CCOC(=O)CCN,9.18,7,amine_primary,3-Aminopropanoic acid ethyl ester (beta-Alanine ethyl ester),[HL]/[L][H],0.1,25.0,7,amine_primary,7(amine_primary),amine_primary,amine_primary(9.0~11.0)
COC(=O)CCCN,9.84,7,amine_primary,4-Aminobutanoic acid methyl ester,[HL]/[L][H],0.1,25.0,7,amine_primary,7(amine_primary),amine_primary,amine_primary(9.0~11.0)
CCOC(=O)CCCN,9.71,8,amine_primary,4-Aminobutanoic acid ethyl ester,[HL]/[L][H],0.0,25.0,8,amine_primary,8(amine_primary),amine_primary,amine_primary(9.0~11.0)
CCOC(=O)CCCCN,10.151,9,amine_primary,5-Aminopentanoic acid ethyl ester,[HL]/[L][H],0.0,25.0,9,amine_primary,9(amine_primary),amine_primary,amine_primary(9.0~11.0)
NCC(N)=O,7.98,0,amine_primary,Glycinamide,[HL]/[L][H],0.1,25.0,0,amine_primary,0(amine_primary),amine_primary,amine_primary(9.0~11.0)
NCC(N)=O,8.2,0,amine_primary,Glycinamide,[HL]/[L][H],1.0,25.0,0,amine_primary,0(amine_primary),amine_primary,amine_primary(9.0~11.0)
CCNC(=O)CN,8.19,6,amine_primary,Glycine ethylamide,[HL]/[L][H],0.5,25.0,6,amine_primary,6(amine_primary),amine_primary,amine_primary(9.0~11.0)
CCN(CC)C(=O)CN,8.45,2,tertiary_amine,Glycine diethylamide,[HL]/[L][H],0.1,25.0,2,tertiary_amine,2(tertiary_amine),Unknown,tertiary_amine(Unknown)
C[C@H](N)C(N)=O,8.03,2,amine_primary,L-Alaninamide,[HL]/[L][H],0.5,25.0,2,amine_primary,2(amine_primary),amine_primary,amine_primary(9.0~11.0)
CC(C)(N)C(N)=O,8.06,3,amine_primary,2-Methylalaninamide,[HL]/[L][H],0.1,25.0,3,amine_primary,3(amine_primary),amine_primary,amine_primary(9.0~11.0)
CC(C)[C@H](N)C(N)=O,7.72,4,amine_primary,L-Valinamide,[HL]/[L][H],0.1,25.0,4,amine_primary,4(amine_primary),amine_primary,amine_primary(9.0~11.0)
CNC(=O)[C@@H](N)CC(C)C,7.72,5,amine_primary,L-Leucine methylamide,[HL]/[L][H],0.1,25.0,5,amine_primary,5(amine_primary),amine_primary,amine_primary(9.0~11.0)
N[C@@H](Cc1ccccc1)C(N)=O,7.26,0,amine_primary,L-Phenylalaninamide,[HL]/[L][H],0.1,25.0,0,amine_primary,0(amine_primary),amine_primary,amine_primary(9.0~11.0)
NCCC(N)=O,9.2,0,amine_primary,beta-Alaninamide,[HL]/[L][H],0.1,25.0,0,amine_primary,0(amine_primary),amine_primary,amine_primary(9.0~11.0)
CCN(CC)C(=O)CCN,9.44,2,tertiary_amine,beta-Alanine diethylamide,[HL]/[L][H],0.1,25.0,2,tertiary_amine,2(tertiary_amine),Unknown,tertiary_amine(Unknown)
NC(=O)[C@@H]1CCCN1,8.69,0,amine_primary,Prolinamide,[HL]/[L][H],0.1,25.0,0,amine_primary,0(amine_primary),amine_primary,amine_primary(9.0~11.0)
NCC(=O)NCC(N)=O,7.78,0,amine_primary,Glycylglycinamide,[HL]/[L][H],0.1,25.0,0,amine_primary,0(amine_primary),amine_primary,amine_primary(9.0~11.0)
NCC(=O)NCCC(N)=O,7.83,0,amine_primary,Glycyl-beta-alaninamide,[HL]/[L][H],0.1,25.0,0,amine_primary,0(amine_primary),amine_primary,amine_primary(9.0~11.0)
NCCC(=O)NCC(N)=O,9.14,0,amine_primary,beta-Alanylglycinamide,[HL]/[L][H],0.1,25.0,0,amine_primary,0(amine_primary),amine_primary,amine_primary(9.0~11.0)
NCCC(=O)NCCC(N)=O,9.21,0,amine_primary,beta-Alanyl-beta-alaninamide,[HL]/[L][H],0.1,25.0,0,amine_primary,0(amine_primary),amine_primary,amine_primary(9.0~11.0)
CC(N)C(=O)NC(C)(C)C(N)=O,7.93,2,amine_primary,DL-Alanyl-2-methylalaninamide,[HL]/[L][H],0.1,25.0,2,amine_primary,2(amine_primary),amine_primary,amine_primary(9.0~11.0)
CC(C)(N)C(=O)NC(C)(C)C(N)=O,7.93,3,amine_primary,2-Methylalanyl-2-methylalaninamide,[HL]/[L][H],0.1,25.0,3,amine_primary,3(amine_primary),amine_primary,amine_primary(9.0~11.0)
NCC(=O)NCC(=O)NCC(N)=O,7.75,0,amine_primary,Glycylglycylglycinamide,[HL]/[L][H],0.1,25.0,0,amine_primary,0(amine_primary),amine_primary,amine_primary(9.0~11.0)
CC(C)(N)C(=O)NC(C)(C)C(=O)NC(C)(C)C(N)=O,7.76,3,amine_primary,2-Methylalanyl-2-methylalanyl-2-methylalaninamide,[HL]/[L][H],0.1,25.0,3,amine_primary,3(amine_primary),amine_primary,amine_primary(9.0~11.0)
N[C@@H](CO)C(N)=O,7.18,0,amine_primary,L-Serine amide,[HL]/[L][H],0.1,25.0,0,amine_primary,0(amine_primary),amine_primary,amine_primary(9.0~11.0)
COC(=O)CNC(=O)CN,7.78,9,amine_primary,Glycylglycine methyl ester,[HL]/[L][H],0.1,25.0,9,amine_primary,9(amine_primary),amine_primary,amine_primary(9.0~11.0)
CCOC(=O)CNC(=O)CN,7.76,10,amine_primary,Glycylglycine ethyl ester,[HL]/[L][H],0.1,25.0,10,amine_primary,10(amine_primary),amine_primary,amine_primary(9.0~11.0)
CCOC(=O)CNC(=O)CN,7.71,10,amine_primary,Glycylglycine ethyl ester,[HL]/[L][H],0.0,25.0,10,amine_primary,10(amine_primary),amine_primary,amine_primary(9.0~11.0)
COC(=O)CN(C)C(=O)CN,8.01,8,tertiary_amine,Glycylsarcosine methyl ester,[HL]/[L][H],0.1,25.0,8,tertiary_amine,8(tertiary_amine),Unknown,tertiary_amine(Unknown)
NCC(=O)NO,9.18,0:4,amine_primary:amine_secondary,Aminoacetohydroxamic acid (Glycinehydroxamic acid),[HL]/[L][H],0.1,25.0,0:4,amine_primary:amine_secondary,0(amine_primary) > 4(amine_secondary),amine_primary,amine_primary(9.0~11.0); amine_secondary(9.5~11.5)
NCC(=O)NO,9.26,0:4,amine_primary:amine_secondary,Aminoacetohydroxamic acid (Glycinehydroxamic acid),[HL]/[L][H],0.1,20.0,0:4,amine_primary:amine_secondary,0(amine_primary) > 4(amine_secondary),amine_primary,amine_primary(9.0~11.0); amine_secondary(9.5~11.5)
NCC(=O)NO,9.1,0:4,amine_primary:amine_secondary,Aminoacetohydroxamic acid (Glycinehydroxamic acid),[HL]/[L][H],0.5,25.0,0:4,amine_primary:amine_secondary,0(amine_primary) > 4(amine_secondary),amine_primary,amine_primary(9.0~11.0); amine_secondary(9.5~11.5)
NCC(=O)NO,7.45,0:4,amine_primary:amine_secondary,Aminoacetohydroxamic acid (Glycinehydroxamic acid),[H₂L]/[HL][H],0.1,25.0,0:4,amine_primary:amine_secondary,0(amine_primary) > 4(amine_secondary),amine_primary,amine_primary(9.0~11.0); amine_secondary(9.5~11.5)
NCC(=O)NO,7.5,0:4,amine_primary:amine_secondary,Aminoacetohydroxamic acid (Glycinehydroxamic acid),[H₂L]/[HL][H],0.1,20.0,0:4,amine_primary:amine_secondary,0(amine_primary) > 4(amine_secondary),amine_primary,amine_primary(9.0~11.0); amine_secondary(9.5~11.5)
NCC(=O)NO,7.48,0:4,amine_primary:amine_secondary,Aminoacetohydroxamic acid (Glycinehydroxamic acid),[H₂L]/[HL][H],0.5,25.0,0:4,amine_primary:amine_secondary,0(amine_primary) > 4(amine_secondary),amine_primary,amine_primary(9.0~11.0); amine_secondary(9.5~11.5)
C[C@H](N)C(=O)NO,9.15,2:5,amine_primary:amine_secondary,L-2-Aminopropanohydroxamic acid (Alaninehydroxamic acid),[HL]/[L][H],0.1,25.0,2:5,amine_primary:amine_secondary,2(amine_primary) > 5(amine_secondary),amine_primary,amine_primary(9.0~11.0); amine_secondary(9.5~11.5)
C[C@H](N)C(=O)NO,9.18,2:5,amine_primary:amine_secondary,L-2-Aminopropanohydroxamic acid (Alaninehydroxamic acid),[HL]/[L][H],0.5,25.0,2:5,amine_primary:amine_secondary,2(amine_primary) > 5(amine_secondary),amine_primary,amine_primary(9.0~11.0); amine_secondary(9.5~11.5)
C[C@H](N)C(=O)NO,9.19,2:5,amine_primary:amine_secondary,L-2-Aminopropanohydroxamic acid (Alaninehydroxamic acid),[HL]/[L][H],1.0,25.0,2:5,amine_primary:amine_secondary,2(amine_primary) > 5(amine_secondary),amine_primary,amine_primary(9.0~11.0); amine_secondary(9.5~11.5)
C[C@H](N)C(=O)NO,7.26,2:5,amine_primary:amine_secondary,L-2-Aminopropanohydroxamic acid (Alaninehydroxamic acid),[H₂L]/[HL][H],0.1,25.0,2:5,amine_primary:amine_secondary,2(amine_primary) > 5(amine_secondary),amine_primary,amine_primary(9.0~11.0); amine_secondary(9.5~11.5)
C[C@H](N)C(=O)NO,7.44,2:5,amine_primary:amine_secondary,L-2-Aminopropanohydroxamic acid (Alaninehydroxamic acid),[H₂L]/[HL][H],0.5,25.0,2:5,amine_primary:amine_secondary,2(amine_primary) > 5(amine_secondary),amine_primary,amine_primary(9.0~11.0); amine_secondary(9.5~11.5)
C[C@H](N)C(=O)NO,7.4,2:5,amine_primary:amine_secondary,L-2-Aminopropanohydroxamic acid (Alaninehydroxamic acid),[H₂L]/[HL][H],1.0,25.0,2:5,amine_primary:amine_secondary,2(amine_primary) > 5(amine_secondary),amine_primary,amine_primary(9.0~11.0); amine_secondary(9.5~11.5)
CCC[C@H](N)C(=O)NO,9.13,4:7,amine_primary:amine_secondary,DL-2-Aminopentanohydroxamic acid (Norvalinehydroxamic acid),[HL]/[L][H],0.5,25.0,4:7,amine_primary:amine_secondary,4(amine_primary) > 7(amine_secondary),amine_primary,amine_primary(9.0~11.0); amine_secondary(9.5~11.5)
CCC[C@H](N)C(=O)NO,7.34,4:7,amine_primary:amine_secondary,DL-2-Aminopentanohydroxamic acid (Norvalinehydroxamic acid),[H₂L]/[HL][H],0.5,25.0,4:7,amine_primary:amine_secondary,4(amine_primary) > 7(amine_secondary),amine_primary,amine_primary(9.0~11.0); amine_secondary(9.5~11.5)
CCCC[C@H](N)C(=O)NO,9.14,5:8,amine_primary:amine_secondary,DL-2-Aminohexanohydroxamic acid (Norleucinehydroxamic acid),[HL]/[L][H],0.5,25.0,5:8,amine_primary:amine_secondary,5(amine_primary) > 8(amine_secondary),amine_primary,amine_primary(9.0~11.0); amine_secondary(9.5~11.5)
CCCC[C@H](N)C(=O)NO,7.33,5:8,amine_primary:amine_secondary,DL-2-Aminohexanohydroxamic acid (Norleucinehydroxamic acid),[H₂L]/[HL][H],0.5,25.0,5:8,amine_primary:amine_secondary,5(amine_primary) > 8(amine_secondary),amine_primary,amine_primary(9.0~11.0); amine_secondary(9.5~11.5)
CC(C)C[C@H](N)C(=O)NO,9.1,5:8,amine_primary:amine_secondary,L-2-Amino-4-methylpentanohydroxamic acid (Leucinehydroxamic acid),[HL]/[L][H],0.1,25.0,5:8,amine_primary:amine_secondary,5(amine_primary) > 8(amine_secondary),amine_primary,amine_primary(9.0~11.0); amine_secondary(9.5~11.5)
CC(C)C[C@H](N)C(=O)NO,9.15,5:8,amine_primary:amine_secondary,L-2-Amino-4-methylpentanohydroxamic acid (Leucinehydroxamic acid),[HL]/[L][H],0.5,25.0,5:8,amine_primary:amine_secondary,5(amine_primary) > 8(amine_secondary),amine_primary,amine_primary(9.0~11.0); amine_secondary(9.5~11.5)
CC(C)C[C@H](N)C(=O)NO,7.14,5:8,amine_primary:amine_secondary,L-2-Amino-4-methylpentanohydroxamic acid (Leucinehydroxamic acid),[H₂L]/[HL][H],0.1,25.0,5:8,amine_primary:amine_secondary,5(amine_primary) > 8(amine_secondary),amine_primary,amine_primary(9.0~11.0); amine_secondary(9.5~11.5)