SMILES,pKa,Dissociable_Atoms,Functional_Group,Name,Equilibrium,Ionic,Temperature,Dissociable_Atoms_Ordered,Functional_Group_Ordered,Dissociation_Order,Dissociating_Group,Functional_Group_pKa_Ranges
OCCN(CCN(CC(O)=O)CC(O)=O)CC(O)=O,9.73,0:9:13:17,alcohol:carboxylic_acid:carboxylic_acid:carboxylic_acid,N-(2-Hydroxyethyl)ethylenedinitrilotriacetic acid (HEDTA),[HL]/[L][H],1.0,25.0,9:13:17:0,carboxylic_acid:carboxylic_acid:carboxylic_acid:alcohol,9(carboxylic_acid) > 13(carboxylic_acid) > 17(carboxylic_acid) > 0(alcohol),carboxylic_acid,alcohol(15.0~18.0); carboxylic_acid(1.5~5.0); carboxylic_acid(1.5~5.0); carboxylic_acid(1.5~5.0)
OCCN(CCN(CC(O)=O)CC(O)=O)CC(O)=O,5.38,0:9:13:17,alcohol:carboxylic_acid:carboxylic_acid:carboxylic_acid,N-(2-Hydroxyethyl)ethylenedinitrilotriacetic acid (HEDTA),[H₂L]/[HL][H],0.1,25.0,9:13:17:0,carboxylic_acid:carboxylic_acid:carboxylic_acid:alcohol,9(carboxylic_acid) > 13(carboxylic_acid) > 17(carboxylic_acid) > 0(alcohol),carboxylic_acid,alcohol(15.0~18.0); carboxylic_acid(1.5~5.0); carboxylic_acid(1.5~5.0); carboxylic_acid(1.5~5.0)
OCCN(CCN(CC(O)=O)CC(O)=O)CC(O)=O,5.4,0:9:13:17,alcohol:carboxylic_acid:carboxylic_acid:carboxylic_acid,N-(2-Hydroxyethyl)ethylenedinitrilotriacetic acid (HEDTA),[H₂L]/[HL][H],0.5,25.0,9:13:17:0,carboxylic_acid:carboxylic_acid:carboxylic_acid:alcohol,9(carboxylic_acid) > 13(carboxylic_acid) > 17(carboxylic_acid) > 0(alcohol),carboxylic_acid,alcohol(15.0~18.0); carboxylic_acid(1.5~5.0); carboxylic_acid(1.5~5.0); carboxylic_acid(1.5~5.0)
OCCN(CCN(CC(O)=O)CC(O)=O)CC(O)=O,5.48,0:9:13:17,alcohol:carboxylic_acid:carboxylic_acid:carboxylic_acid,N-(2-Hydroxyethyl)ethylenedinitrilotriacetic acid (HEDTA),[H₂L]/[HL][H],1.0,25.0,9:13:17:0,carboxylic_acid:carboxylic_acid:carboxylic_acid:alcohol,9(carboxylic_acid) > 13(carboxylic_acid) > 17(carboxylic_acid) > 0(alcohol),carboxylic_acid,alcohol(15.0~18.0); carboxylic_acid(1.5~5.0); carboxylic_acid(1.5~5.0); carboxylic_acid(1.5~5.0)
OCCN(CCN(CC(O)=O)CC(O)=O)CC(O)=O,2.62,0:9:13:17,alcohol:carboxylic_acid:carboxylic_acid:carboxylic_acid,N-(2-Hydroxyethyl)ethylenedinitrilotriacetic acid (HEDTA),[H₃L]/[H₂L][H],0.1,25.0,9:13:17:0,carboxylic_acid:carboxylic_acid:carboxylic_acid:alcohol,9(carboxylic_acid) > 13(carboxylic_acid) > 17(carboxylic_acid) > 0(alcohol),carboxylic_acid,alcohol(15.0~18.0); carboxylic_acid(1.5~5.0); carboxylic_acid(1.5~5.0); carboxylic_acid(1.5~5.0)
OCCN(CCN(CC(O)=O)CC(O)=O)CC(O)=O,2.71,0:9:13:17,alcohol:carboxylic_acid:carboxylic_acid:carboxylic_acid,N-(2-Hydroxyethyl)ethylenedinitrilotriacetic acid (HEDTA),[H₃L]/[H₂L][H],0.5,25.0,9:13:17:0,carboxylic_acid:carboxylic_acid:carboxylic_acid:alcohol,9(carboxylic_acid) > 13(carboxylic_acid) > 17(carboxylic_acid) > 0(alcohol),carboxylic_acid,alcohol(15.0~18.0); carboxylic_acid(1.5~5.0); carboxylic_acid(1.5~5.0); carboxylic_acid(1.5~5.0)
OCCN(CCN(CC(O)=O)CC(O)=O)CC(O)=O,2.33,0:9:13:17,alcohol:carboxylic_acid:carboxylic_acid:carboxylic_acid,N-(2-Hydroxyethyl)ethylenedinitrilotriacetic acid (HEDTA),[H₃L]/[H₂L][H],1.0,25.0,9:13:17:0,carboxylic_acid:carboxylic_acid:carboxylic_acid:alcohol,9(carboxylic_acid) > 13(carboxylic_acid) > 17(carboxylic_acid) > 0(alcohol),carboxylic_acid,alcohol(15.0~18.0); carboxylic_acid(1.5~5.0); carboxylic_acid(1.5~5.0); carboxylic_acid(1.5~5.0)
OCCN(CCN(CC(O)=O)CC(O)=O)CC(O)=O,1.6,0:9:13:17,alcohol:carboxylic_acid:carboxylic_acid:carboxylic_acid,N-(2-Hydroxyethyl)ethylenedinitrilotriacetic acid (HEDTA),[H₄L]/[H₃L][H],1.0,25.0,9:13:17:0,carboxylic_acid:carboxylic_acid:carboxylic_acid:alcohol,9(carboxylic_acid) > 13(carboxylic_acid) > 17(carboxylic_acid) > 0(alcohol),carboxylic_acid,alcohol(15.0~18.0); carboxylic_acid(1.5~5.0); carboxylic_acid(1.5~5.0); carboxylic_acid(1.5~5.0)
OC(=O)CN(CCN(CC(O)=O)CC(O)=O)CC(O)=O,9.52,7:11,tertiary_amine:tertiary_amine,Ethylenedinitrilotetraacetic acid (EDTA),[HL]/[L][H],0.1,25.0,7:11,tertiary_amine:tertiary_amine,7(tertiary_amine) > 11(tertiary_amine),Unknown,tertiary_amine(Unknown); tertiary_amine(Unknown)
OC(=O)CN(CCN(CC(O)=O)CC(O)=O)CC(O)=O,10.19,7:11,tertiary_amine:tertiary_amine,Ethylenedinitrilotetraacetic acid (EDTA),[HL]/[L][H],0.1,25.0,7:11,tertiary_amine:tertiary_amine,7(tertiary_amine) > 11(tertiary_amine),Unknown,tertiary_amine(Unknown); tertiary_amine(Unknown)
OC(=O)CN(CCN(CC(O)=O)CC(O)=O)CC(O)=O,10.37,7:11,tertiary_amine:tertiary_amine,Ethylenedinitrilotetraacetic acid (EDTA),[HL]/[L][H],0.1,25.0,7:11,tertiary_amine:tertiary_amine,7(tertiary_amine) > 11(tertiary_amine),Unknown,tertiary_amine(Unknown); tertiary_amine(Unknown)
OC(=O)CN(CCN(CC(O)=O)CC(O)=O)CC(O)=O,9.38,7:11,tertiary_amine:tertiary_amine,Ethylenedinitrilotetraacetic acid (EDTA),[HL]/[L][H],0.15,37.0,7:11,tertiary_amine:tertiary_amine,7(tertiary_amine) > 11(tertiary_amine),Unknown,tertiary_amine(Unknown); tertiary_amine(Unknown)
OC(=O)CN(CCN(CC(O)=O)CC(O)=O)CC(O)=O,10.02,7:11,tertiary_amine:tertiary_amine,Ethylenedinitrilotetraacetic acid (EDTA),[HL]/[L][H],0.15,37.0,7:11,tertiary_amine:tertiary_amine,7(tertiary_amine) > 11(tertiary_amine),Unknown,tertiary_amine(Unknown); tertiary_amine(Unknown)
OC(=O)CN(CCN(CC(O)=O)CC(O)=O)CC(O)=O,10.21,7:11,tertiary_amine:tertiary_amine,Ethylenedinitrilotetraacetic acid (EDTA),[HL]/[L][H],0.15,37.0,7:11,tertiary_amine:tertiary_amine,7(tertiary_amine) > 11(tertiary_amine),Unknown,tertiary_amine(Unknown); tertiary_amine(Unknown)
OC(=O)CN(CCN(CC(O)=O)CC(O)=O)CC(O)=O,8.86,7:11,tertiary_amine:tertiary_amine,Ethylenedinitrilotetraacetic acid (EDTA),[HL]/[L][H],0.5,25.0,7:11,tertiary_amine:tertiary_amine,7(tertiary_amine) > 11(tertiary_amine),Unknown,tertiary_amine(Unknown); tertiary_amine(Unknown)
OC(=O)CN(CCN(CC(O)=O)CC(O)=O)CC(O)=O,9.62,7:11,tertiary_amine:tertiary_amine,Ethylenedinitrilotetraacetic acid (EDTA),[HL]/[L][H],0.5,25.0,7:11,tertiary_amine:tertiary_amine,7(tertiary_amine) > 11(tertiary_amine),Unknown,tertiary_amine(Unknown); tertiary_amine(Unknown)
OC(=O)CN(CCN(CC(O)=O)CC(O)=O)CC(O)=O,10.23,7:11,tertiary_amine:tertiary_amine,Ethylenedinitrilotetraacetic acid (EDTA),[HL]/[L][H],0.5,25.0,7:11,tertiary_amine:tertiary_amine,7(tertiary_amine) > 11(tertiary_amine),Unknown,tertiary_amine(Unknown); tertiary_amine(Unknown)
OC(=O)CN(CCN(CC(O)=O)CC(O)=O)CC(O)=O,8.73,7:11,tertiary_amine:tertiary_amine,Ethylenedinitrilotetraacetic acid (EDTA),[HL]/[L][H],1.0,25.0,7:11,tertiary_amine:tertiary_amine,7(tertiary_amine) > 11(tertiary_amine),Unknown,tertiary_amine(Unknown); tertiary_amine(Unknown)
OC(=O)CN(CCN(CC(O)=O)CC(O)=O)CC(O)=O,9.86,7:11,tertiary_amine:tertiary_amine,Ethylenedinitrilotetraacetic acid (EDTA),[HL]/[L][H],1.0,25.0,7:11,tertiary_amine:tertiary_amine,7(tertiary_amine) > 11(tertiary_amine),Unknown,tertiary_amine(Unknown); tertiary_amine(Unknown)
OC(=O)CN(CCN(CC(O)=O)CC(O)=O)CC(O)=O,10.2,7:11,tertiary_amine:tertiary_amine,Ethylenedinitrilotetraacetic acid (EDTA),[HL]/[L][H],1.0,25.0,7:11,tertiary_amine:tertiary_amine,7(tertiary_amine) > 11(tertiary_amine),Unknown,tertiary_amine(Unknown); tertiary_amine(Unknown)
OC(=O)CN(CCN(CC(O)=O)CC(O)=O)CC(O)=O,9.05,7:11,tertiary_amine:tertiary_amine,Ethylenedinitrilotetraacetic acid (EDTA),[HL]/[L][H],3.0,25.0,7:11,tertiary_amine:tertiary_amine,7(tertiary_amine) > 11(tertiary_amine),Unknown,tertiary_amine(Unknown); tertiary_amine(Unknown)
OC(=O)CN(CCN(CC(O)=O)CC(O)=O)CC(O)=O,10.948,7:11,tertiary_amine:tertiary_amine,Ethylenedinitrilotetraacetic acid (EDTA),[HL]/[L][H],0.0,25.0,7:11,tertiary_amine:tertiary_amine,7(tertiary_amine) > 11(tertiary_amine),Unknown,tertiary_amine(Unknown); tertiary_amine(Unknown)
OC(=O)CN(CCN(CC(O)=O)CC(O)=O)CC(O)=O,6.13,7:11,tertiary_amine:tertiary_amine,Ethylenedinitrilotetraacetic acid (EDTA),[H₂L]/[HL][H],0.1,25.0,7:11,tertiary_amine:tertiary_amine,7(tertiary_amine) > 11(tertiary_amine),Unknown,tertiary_amine(Unknown); tertiary_amine(Unknown)
OC(=O)CN(CCN(CC(O)=O)CC(O)=O)CC(O)=O,6.03,7:11,tertiary_amine:tertiary_amine,Ethylenedinitrilotetraacetic acid (EDTA),[H₂L]/[HL][H],0.15,37.0,7:11,tertiary_amine:tertiary_amine,7(tertiary_amine) > 11(tertiary_amine),Unknown,tertiary_amine(Unknown); tertiary_amine(Unknown)
OC(=O)CN(CCN(CC(O)=O)CC(O)=O)CC(O)=O,6.1,7:11,tertiary_amine:tertiary_amine,Ethylenedinitrilotetraacetic acid (EDTA),[H₂L]/[HL][H],0.5,25.0,7:11,tertiary_amine:tertiary_amine,7(tertiary_amine) > 11(tertiary_amine),Unknown,tertiary_amine(Unknown); tertiary_amine(Unknown)
OC(=O)CN(CCN(CC(O)=O)CC(O)=O)CC(O)=O,6.19,7:11,tertiary_amine:tertiary_amine,Ethylenedinitrilotetraacetic acid (EDTA),[H₂L]/[HL][H],1.0,25.0,7:11,tertiary_amine:tertiary_amine,7(tertiary_amine) > 11(tertiary_amine),Unknown,tertiary_amine(Unknown); tertiary_amine(Unknown)
OC(=O)CN(CCN(CC(O)=O)CC(O)=O)CC(O)=O,7.02,7:11,tertiary_amine:tertiary_amine,Ethylenedinitrilotetraacetic acid (EDTA),[H₂L]/[HL][H],3.0,25.0,7:11,tertiary_amine:tertiary_amine,7(tertiary_amine) > 11(tertiary_amine),Unknown,tertiary_amine(Unknown); tertiary_amine(Unknown)
OC(=O)CN(CCN(CC(O)=O)CC(O)=O)CC(O)=O,6.273,7:11,tertiary_amine:tertiary_amine,Ethylenedinitrilotetraacetic acid (EDTA),[H₂L]/[HL][H],0.0,25.0,7:11,tertiary_amine:tertiary_amine,7(tertiary_amine) > 11(tertiary_amine),Unknown,tertiary_amine(Unknown); tertiary_amine(Unknown)
OC(=O)CN(CCN(CC(O)=O)CC(O)=O)CC(O)=O,2.69,7:11,tertiary_amine:tertiary_amine,Ethylenedinitrilotetraacetic acid (EDTA),[H₃L]/[H₂L][H],0.1,25.0,7:11,tertiary_amine:tertiary_amine,7(tertiary_amine) > 11(tertiary_amine),Unknown,tertiary_amine(Unknown); tertiary_amine(Unknown)
OC(=O)CN(CCN(CC(O)=O)CC(O)=O)CC(O)=O,2.79,7:11,tertiary_amine:tertiary_amine,Ethylenedinitrilotetraacetic acid (EDTA),[H₃L]/[H₂L][H],0.15,37.0,7:11,tertiary_amine:tertiary_amine,7(tertiary_amine) > 11(tertiary_amine),Unknown,tertiary_amine(Unknown); tertiary_amine(Unknown)
OC(=O)CN(CCN(CC(O)=O)CC(O)=O)CC(O)=O,2.52,7:11,tertiary_amine:tertiary_amine,Ethylenedinitrilotetraacetic acid (EDTA),[H₃L]/[H₂L][H],1.0,25.0,7:11,tertiary_amine:tertiary_amine,7(tertiary_amine) > 11(tertiary_amine),Unknown,tertiary_amine(Unknown); tertiary_amine(Unknown)
OC(=O)CN(CCN(CC(O)=O)CC(O)=O)CC(O)=O,2.54,7:11,tertiary_amine:tertiary_amine,Ethylenedinitrilotetraacetic acid (EDTA),[H₃L]/[H₂L][H],3.0,25.0,7:11,tertiary_amine:tertiary_amine,7(tertiary_amine) > 11(tertiary_amine),Unknown,tertiary_amine(Unknown); tertiary_amine(Unknown)
OC(=O)CN(CCN(CC(O)=O)CC(O)=O)CC(O)=O,2.0,7:11,tertiary_amine:tertiary_amine,Ethylenedinitrilotetraacetic acid (EDTA),[H₄L]/[H₃L][H],0.1,25.0,7:11,tertiary_amine:tertiary_amine,7(tertiary_amine) > 11(tertiary_amine),Unknown,tertiary_amine(Unknown); tertiary_amine(Unknown)
OC(=O)CN(CCN(CC(O)=O)CC(O)=O)CC(O)=O,2.05,7:11,tertiary_amine:tertiary_amine,Ethylenedinitrilotetraacetic acid (EDTA),[H₄L]/[H₃L][H],0.15,37.0,7:11,tertiary_amine:tertiary_amine,7(tertiary_amine) > 11(tertiary_amine),Unknown,tertiary_amine(Unknown); tertiary_amine(Unknown)
OC(=O)CN(CCN(CC(O)=O)CC(O)=O)CC(O)=O,2.02,7:11,tertiary_amine:tertiary_amine,Ethylenedinitrilotetraacetic acid (EDTA),[H₄L]/[H₃L][H],1.0,25.0,7:11,tertiary_amine:tertiary_amine,7(tertiary_amine) > 11(tertiary_amine),Unknown,tertiary_amine(Unknown); tertiary_amine(Unknown)
OC(=O)CN(CCN(CC(O)=O)CC(O)=O)CC(O)=O,2.2,7:11,tertiary_amine:tertiary_amine,Ethylenedinitrilotetraacetic acid (EDTA),[H₄L]/[H₃L][H],3.0,25.0,7:11,tertiary_amine:tertiary_amine,7(tertiary_amine) > 11(tertiary_amine),Unknown,tertiary_amine(Unknown); tertiary_amine(Unknown)
OC(=O)CN(CCN(CC(O)=O)CC(O)=O)CC(O)=O,1.5,7:11,tertiary_amine:tertiary_amine,Ethylenedinitrilotetraacetic acid (EDTA),[H₅L]/[H₄L][H],0.1,25.0,7:11,tertiary_amine:tertiary_amine,7(tertiary_amine) > 11(tertiary_amine),Unknown,tertiary_amine(Unknown); tertiary_amine(Unknown)
OC(=O)CN(CCN(CC(O)=O)CC(O)=O)CC(O)=O,1.6,7:11,tertiary_amine:tertiary_amine,Ethylenedinitrilotetraacetic acid (EDTA),[H₅L]/[H₄L][H],0.15,37.0,7:11,tertiary_amine:tertiary_amine,7(tertiary_amine) > 11(tertiary_amine),Unknown,tertiary_amine(Unknown); tertiary_amine(Unknown)
OC(=O)CN(CCN(CC(O)=O)CC(O)=O)CC(O)=O,1.4,7:11,tertiary_amine:tertiary_amine,Ethylenedinitrilotetraacetic acid (EDTA),[H₅L]/[H₄L][H],1.0,25.0,7:11,tertiary_amine:tertiary_amine,7(tertiary_amine) > 11(tertiary_amine),Unknown,tertiary_amine(Unknown); tertiary_amine(Unknown)
OC(=O)CN(CCN(CC(O)=O)CC(O)=O)CC(O)=O,1.7,7:11,tertiary_amine:tertiary_amine,Ethylenedinitrilotetraacetic acid (EDTA),[H₅L]/[H₄L][H],3.0,25.0,7:11,tertiary_amine:tertiary_amine,7(tertiary_amine) > 11(tertiary_amine),Unknown,tertiary_amine(Unknown); tertiary_amine(Unknown)
OC(=O)CN(CCN(CC(O)=O)CC(O)=O)CC(O)=O,0.0,7:11,tertiary_amine:tertiary_amine,Ethylenedinitrilotetraacetic acid (EDTA),[H₆L]/[H₅L][H],1.0,25.0,7:11,tertiary_amine:tertiary_amine,7(tertiary_amine) > 11(tertiary_amine),Unknown,tertiary_amine(Unknown); tertiary_amine(Unknown)
OC(=O)CN(CCN(CC(O)=O)CC(O)=O)CC(O)=O,0.4,7:11,tertiary_amine:tertiary_amine,Ethylenedinitrilotetraacetic acid (EDTA),[H₆L]/[H₅L][H],3.0,25.0,7:11,tertiary_amine:tertiary_amine,7(tertiary_amine) > 11(tertiary_amine),Unknown,tertiary_amine(Unknown); tertiary_amine(Unknown)
CC(CN(CC(O)=O)CC(O)=O)N(CC(O)=O)CC(O)=O,10.85,6:10:15:19,carboxylic_acid:carboxylic_acid:carboxylic_acid:carboxylic_acid,DL-(Methylethylene)dinitrilotetraacetic acid (PDTA),[HL]/[L][H],0.1,25.0,6:10:15:19,carboxylic_acid:carboxylic_acid:carboxylic_acid:carboxylic_acid,6(carboxylic_acid) > 10(carboxylic_acid) > 15(carboxylic_acid) > 19(carboxylic_acid),carboxylic_acid,carboxylic_acid(1.5~5.0); carboxylic_acid(1.5~5.0); carboxylic_acid(1.5~5.0); carboxylic_acid(1.5~5.0)
CC(CN(CC(O)=O)CC(O)=O)N(CC(O)=O)CC(O)=O,11.01,6:10:15:19,carboxylic_acid:carboxylic_acid:carboxylic_acid:carboxylic_acid,DL-(Methylethylene)dinitrilotetraacetic acid (PDTA),[HL]/[L][H],0.5,25.0,6:10:15:19,carboxylic_acid:carboxylic_acid:carboxylic_acid:carboxylic_acid,6(carboxylic_acid) > 10(carboxylic_acid) > 15(carboxylic_acid) > 19(carboxylic_acid),carboxylic_acid,carboxylic_acid(1.5~5.0); carboxylic_acid(1.5~5.0); carboxylic_acid(1.5~5.0); carboxylic_acid(1.5~5.0)
CC(CN(CC(O)=O)CC(O)=O)N(CC(O)=O)CC(O)=O,11.17,6:10:15:19,carboxylic_acid:carboxylic_acid:carboxylic_acid:carboxylic_acid,DL-(Methylethylene)dinitrilotetraacetic acid (PDTA),[HL]/[L][H],0.0,20.0,6:10:15:19,carboxylic_acid:carboxylic_acid:carboxylic_acid:carboxylic_acid,6(carboxylic_acid) > 10(carboxylic_acid) > 15(carboxylic_acid) > 19(carboxylic_acid),carboxylic_acid,carboxylic_acid(1.5~5.0); carboxylic_acid(1.5~5.0); carboxylic_acid(1.5~5.0); carboxylic_acid(1.5~5.0)
CC(CN(CC(O)=O)CC(O)=O)N(CC(O)=O)CC(O)=O,6.24,6:10:15:19,carboxylic_acid:carboxylic_acid:carboxylic_acid:carboxylic_acid,DL-(Methylethylene)dinitrilotetraacetic acid (PDTA),[H₂L]/[HL][H],0.1,25.0,6:10:15:19,carboxylic_acid:carboxylic_acid:carboxylic_acid:carboxylic_acid,6(carboxylic_acid) > 10(carboxylic_acid) > 15(carboxylic_acid) > 19(carboxylic_acid),carboxylic_acid,carboxylic_acid(1.5~5.0); carboxylic_acid(1.5~5.0); carboxylic_acid(1.5~5.0); carboxylic_acid(1.5~5.0)
CC(CN(CC(O)=O)CC(O)=O)N(CC(O)=O)CC(O)=O,6.2,6:10:15:19,carboxylic_acid:carboxylic_acid:carboxylic_acid:carboxylic_acid,DL-(Methylethylene)dinitrilotetraacetic acid (PDTA),[H₂L]/[HL][H],0.5,20.0,6:10:15:19,carboxylic_acid:carboxylic_acid:carboxylic_acid:carboxylic_acid,6(carboxylic_acid) > 10(carboxylic_acid) > 15(carboxylic_acid) > 19(carboxylic_acid),carboxylic_acid,carboxylic_acid(1.5~5.0); carboxylic_acid(1.5~5.0); carboxylic_acid(1.5~5.0); carboxylic_acid(1.5~5.0)
CC(CN(CC(O)=O)CC(O)=O)N(CC(O)=O)CC(O)=O,6.4,6:10:15:19,carboxylic_acid:carboxylic_acid:carboxylic_acid:carboxylic_acid,DL-(Methylethylene)dinitrilotetraacetic acid (PDTA),[H₂L]/[HL][H],0.0,20.0,6:10:15:19,carboxylic_acid:carboxylic_acid:carboxylic_acid:carboxylic_acid,6(carboxylic_acid) > 10(carboxylic_acid) > 15(carboxylic_acid) > 19(carboxylic_acid),carboxylic_acid,carboxylic_acid(1.5~5.0); carboxylic_acid(1.5~5.0); carboxylic_acid(1.5~5.0); carboxylic_acid(1.5~5.0)
CC(CN(CC(O)=O)CC(O)=O)N(CC(O)=O)CC(O)=O,2.79,6:10:15:19,carboxylic_acid:carboxylic_acid:carboxylic_acid:carboxylic_acid,DL-(Methylethylene)dinitrilotetraacetic acid (PDTA),[H₃L]/[H₂L][H],0.1,20.0,6:10:15:19,carboxylic_acid:carboxylic_acid:carboxylic_acid:carboxylic_acid,6(carboxylic_acid) > 10(carboxylic_acid) > 15(carboxylic_acid) > 19(carboxylic_acid),carboxylic_acid,carboxylic_acid(1.5~5.0); carboxylic_acid(1.5~5.0); carboxylic_acid(1.5~5.0); carboxylic_acid(1.5~5.0)
CC(CN(CC(O)=O)CC(O)=O)N(CC(O)=O)CC(O)=O,1.8,6:10:15:19,carboxylic_acid:carboxylic_acid:carboxylic_acid:carboxylic_acid,DL-(Methylethylene)dinitrilotetraacetic acid (PDTA),[H₄L]/[H₃L][H],0.1,20.0,6:10:15:19,carboxylic_acid:carboxylic_acid:carboxylic_acid:carboxylic_acid,6(carboxylic_acid) > 10(carboxylic_acid) > 15(carboxylic_acid) > 19(carboxylic_acid),carboxylic_acid,carboxylic_acid(1.5~5.0); carboxylic_acid(1.5~5.0); carboxylic_acid(1.5~5.0); carboxylic_acid(1.5~5.0)
NCC(=O)NC(CO[P](O)(O)=O)C(O)=O,8.42,13:0:4,carboxylic_acid:amine_primary:amine_secondary,Glycyl-DL-phosphoserine (Glycyl-DL-serine dihydrogenphosphate),[HL]/[L][H],0.1,25.0,13:0:4,carboxylic_acid:amine_primary:amine_secondary,13(carboxylic_acid) > 0(amine_primary) > 4(amine_secondary),amine_primary,carboxylic_acid(1.5~5.0); amine_primary(9.0~11.0); amine_secondary(9.5~11.5)
NCC(=O)NC(CO[P](O)(O)=O)C(O)=O,6.03,13:0:4,carboxylic_acid:amine_primary:amine_secondary,Glycyl-DL-phosphoserine (Glycyl-DL-serine dihydrogenphosphate),[H₂L]/[HL][H],0.1,25.0,13:0:4,carboxylic_acid:amine_primary:amine_secondary,13(carboxylic_acid) > 0(amine_primary) > 4(amine_secondary),carboxylic_acid,carboxylic_acid(1.5~5.0); amine_primary(9.0~11.0); amine_secondary(9.5~11.5)
NCC(=O)NC(CO[P](O)(O)=O)C(O)=O,2.91,13:0:4,carboxylic_acid:amine_primary:amine_secondary,Glycyl-DL-phosphoserine (Glycyl-DL-serine dihydrogenphosphate),[H₃L]/[H₂L][H],0.1,25.0,13:0:4,carboxylic_acid:amine_primary:amine_secondary,13(carboxylic_acid) > 0(amine_primary) > 4(amine_secondary),carboxylic_acid,carboxylic_acid(1.5~5.0); amine_primary(9.0~11.0); amine_secondary(9.5~11.5)
NCC(=O)N[C@@H](Cc1ccc(O)cc1)C(O)=O,9.98,15:0:4,carboxylic_acid:amine_primary:amine_secondary,Glycyl-L-tyrosine,[HL]/[L][H],0.1,25.0,15:0:4,carboxylic_acid:amine_primary:amine_secondary,15(carboxylic_acid) > 0(amine_primary) > 4(amine_secondary),amine_primary,carboxylic_acid(1.5~5.0); amine_primary(9.0~11.0); amine_secondary(9.5~11.5)
NCC(=O)N[C@@H](Cc1ccc(O)cc1)C(O)=O,8.14,15:0:4,carboxylic_acid:amine_primary:amine_secondary,Glycyl-L-tyrosine,[H₂L]/[HL][H],0.1,25.0,15:0:4,carboxylic_acid:amine_primary:amine_secondary,15(carboxylic_acid) > 0(amine_primary) > 4(amine_secondary),amine_primary,carboxylic_acid(1.5~5.0); amine_primary(9.0~11.0); amine_secondary(9.5~11.5)
NCC(=O)N[C@@H](Cc1ccc(O)cc1)C(O)=O,3.02,15:0:4,carboxylic_acid:amine_primary:amine_secondary,Glycyl-L-tyrosine,[H₃L]/[H₂L][H],0.1,25.0,15:0:4,carboxylic_acid:amine_primary:amine_secondary,15(carboxylic_acid) > 0(amine_primary) > 4(amine_secondary),carboxylic_acid,carboxylic_acid(1.5~5.0); amine_primary(9.0~11.0); amine_secondary(9.5~11.5)
NCC(=O)N[C@@H](CO)C(O)=O,8.13,9:0,carboxylic_acid:amine_primary,Glycyl-L-serine,[HL]/[L][H],0.1,25.0,9:0,carboxylic_acid:amine_primary,9(carboxylic_acid) > 0(amine_primary),amine_primary,carboxylic_acid(1.5~5.0); amine_primary(9.0~11.0)
NCC(=O)N[C@@H](CO)C(O)=O,8.7,9:0,carboxylic_acid:amine_primary,Glycyl-L-serine,[HL]/[L][H],0.0,10.0,9:0,carboxylic_acid:amine_primary,9(carboxylic_acid) > 0(amine_primary),amine_primary,carboxylic_acid(1.5~5.0); amine_primary(9.0~11.0)
NCC(=O)N[C@@H](CO)C(O)=O,8.277,9:0,carboxylic_acid:amine_primary,Glycyl-L-serine,[HL]/[L][H],0.0,25.0,9:0,carboxylic_acid:amine_primary,9(carboxylic_acid) > 0(amine_primary),amine_primary,carboxylic_acid(1.5~5.0); amine_primary(9.0~11.0)
NCC(=O)N[C@@H](CO)C(O)=O,7.908,9:0,carboxylic_acid:amine_primary,Glycyl-L-serine,[HL]/[L][H],0.0,40.0,9:0,carboxylic_acid:amine_primary,9(carboxylic_acid) > 0(amine_primary),amine_primary,carboxylic_acid(1.5~5.0); amine_primary(9.0~11.0)