SMILES,pKa,Dissociable_Atoms,Functional_Group,Name,Equilibrium,Ionic,Temperature,Dissociable_Atoms_Ordered,Functional_Group_Ordered,Dissociation_Order,Dissociating_Group,Functional_Group_pKa_Ranges
Cc1ncc(CO)c(CO)c1O,8.81,11:6,phenol:alcohol,"3-Hydroxy-4,5-bis(hydroxymethyl)-2-methylpyridine (Pyridoxine)",[HL]/[L][H],0.1,25.0,11:6,phenol:alcohol,11(phenol) > 6(alcohol),phenol,phenol(8.0~11.0); alcohol(15.0~18.0)
Cc1ncc(CO)c(CO)c1O,8.66,11:6,phenol:alcohol,"3-Hydroxy-4,5-bis(hydroxymethyl)-2-methylpyridine (Pyridoxine)",[HL]/[L][H],0.15,37.0,11:6,phenol:alcohol,11(phenol) > 6(alcohol),phenol,phenol(8.0~11.0); alcohol(15.0~18.0)
Cc1ncc(CO)c(CO)c1O,8.94,11:6,phenol:alcohol,"3-Hydroxy-4,5-bis(hydroxymethyl)-2-methylpyridine (Pyridoxine)",[HL]/[L][H],0.5,30.0,11:6,phenol:alcohol,11(phenol) > 6(alcohol),phenol,phenol(8.0~11.0); alcohol(15.0~18.0)
Cc1ncc(CO)c(CO)c1O,9.04,11:6,phenol:alcohol,"3-Hydroxy-4,5-bis(hydroxymethyl)-2-methylpyridine (Pyridoxine)",[HL]/[L][H],0.0,25.0,11:6,phenol:alcohol,11(phenol) > 6(alcohol),phenol,phenol(8.0~11.0); alcohol(15.0~18.0)
Cc1ncc(CO)c(CO)c1O,4.85,11:6,phenol:alcohol,"3-Hydroxy-4,5-bis(hydroxymethyl)-2-methylpyridine (Pyridoxine)",[H₂L]/[HL][H],0.1,25.0,11:6,phenol:alcohol,11(phenol) > 6(alcohol),phenol,phenol(8.0~11.0); alcohol(15.0~18.0)
Cc1ncc(CO)c(CO)c1O,4.78,11:6,phenol:alcohol,"3-Hydroxy-4,5-bis(hydroxymethyl)-2-methylpyridine (Pyridoxine)",[H₂L]/[HL][H],0.15,37.0,11:6,phenol:alcohol,11(phenol) > 6(alcohol),phenol,phenol(8.0~11.0); alcohol(15.0~18.0)
Cc1ncc(CO)c(CO)c1O,4.86,11:6,phenol:alcohol,"3-Hydroxy-4,5-bis(hydroxymethyl)-2-methylpyridine (Pyridoxine)",[H₂L]/[HL][H],0.5,30.0,11:6,phenol:alcohol,11(phenol) > 6(alcohol),phenol,phenol(8.0~11.0); alcohol(15.0~18.0)
Cc1ncc(CO)c(CO)c1O,4.84,11:6,phenol:alcohol,"3-Hydroxy-4,5-bis(hydroxymethyl)-2-methylpyridine (Pyridoxine)",[H₂L]/[HL][H],0.0,25.0,11:6,phenol:alcohol,11(phenol) > 6(alcohol),phenol,phenol(8.0~11.0); alcohol(15.0~18.0)
O=Cc1ccccn1,3.8,7,pyridine_nitrogen,Pyridine-2-carboxaldehyde,[HL]/[L][H],0.1,20.0,7,pyridine_nitrogen,7(pyridine_nitrogen),Unknown,pyridine_nitrogen(Unknown)
O=Cc1cccnc1,3.8,6,pyridine_nitrogen,Pyridine-3-carboxaldehyde,[HL]/[L][H],0.1,20.0,6,pyridine_nitrogen,6(pyridine_nitrogen),Unknown,pyridine_nitrogen(Unknown)
O=Cc1ccncc1,4.77,5,pyridine_nitrogen,Pyridine-4-carboxaldehyde,[HL]/[L][H],0.1,20.0,5,pyridine_nitrogen,5(pyridine_nitrogen),Unknown,pyridine_nitrogen(Unknown)
COc1cccnc1C=O,2.89,6,pyridine_nitrogen,3-Methoxypyridine-2-carboxaldehyde,[HL]/[L][H],0.1,20.0,6,pyridine_nitrogen,6(pyridine_nitrogen),Unknown,pyridine_nitrogen(Unknown)
COc1cnccc1C=O,4.45,3,pyridine_nitrogen,3-Methoxypyridine-4-carboxaldehyde,[HL]/[L][H],0.1,20.0,3,pyridine_nitrogen,3(pyridine_nitrogen),Unknown,pyridine_nitrogen(Unknown)
Oc1cccnc1C=O,6.95,5,pyridine_nitrogen,3-Hydroxypyridine-2-carboxaldehyde,[HL]/[L][H],0.1,20.0,5,pyridine_nitrogen,5(pyridine_nitrogen),Unknown,pyridine_nitrogen(Unknown)
Oc1cccnc1C=O,3.4,5,pyridine_nitrogen,3-Hydroxypyridine-2-carboxaldehyde,[H₂L]/[HL][H],0.1,20.0,5,pyridine_nitrogen,5(pyridine_nitrogen),Unknown,pyridine_nitrogen(Unknown)
Oc1cnccc1C=O,6.7,0:2,phenol:pyridine_nitrogen,3-Hydroxypyridine-4-carboxaldehyde,[HL]/[L][H],0.1,25.0,0:2,phenol:pyridine_nitrogen,0(phenol) > 2(pyridine_nitrogen),phenol,phenol(8.0~11.0); pyridine_nitrogen(Unknown)
Oc1cnccc1C=O,6.77,0:2,phenol:pyridine_nitrogen,3-Hydroxypyridine-4-carboxaldehyde,[HL]/[L][H],0.1,20.0,0:2,phenol:pyridine_nitrogen,0(phenol) > 2(pyridine_nitrogen),phenol,phenol(8.0~11.0); pyridine_nitrogen(Unknown)
Oc1cnccc1C=O,4.04,0:2,phenol:pyridine_nitrogen,3-Hydroxypyridine-4-carboxaldehyde,[H₂L]/[HL][H],0.1,25.0,0:2,phenol:pyridine_nitrogen,0(phenol) > 2(pyridine_nitrogen),phenol,phenol(8.0~11.0); pyridine_nitrogen(Unknown)
Oc1cnccc1C=O,4.05,0:2,phenol:pyridine_nitrogen,3-Hydroxypyridine-4-carboxaldehyde,[H₂L]/[HL][H],0.1,20.0,0:2,phenol:pyridine_nitrogen,0(phenol) > 2(pyridine_nitrogen),phenol,phenol(8.0~11.0); pyridine_nitrogen(Unknown)
Cc1ncc(CO)c(C=O)c1O,8.53,6:11,alcohol:phenol,3-Hydroxy-5-hydroxymethyl-2-methylpyridine-4-carboxaldehyde (Pyridoxal),[HL]/[L][H],0.1,25.0,11:6,phenol:alcohol,11(phenol) > 6(alcohol),phenol,alcohol(15.0~18.0); phenol(8.0~11.0)
Cc1ncc(CO)c(C=O)c1O,8.39,6:11,alcohol:phenol,3-Hydroxy-5-hydroxymethyl-2-methylpyridine-4-carboxaldehyde (Pyridoxal),[HL]/[L][H],0.5,25.0,11:6,phenol:alcohol,11(phenol) > 6(alcohol),phenol,alcohol(15.0~18.0); phenol(8.0~11.0)
Cc1ncc(CO)c(C=O)c1O,8.28,6:11,alcohol:phenol,3-Hydroxy-5-hydroxymethyl-2-methylpyridine-4-carboxaldehyde (Pyridoxal),[HL]/[L][H],1.0,25.0,11:6,phenol:alcohol,11(phenol) > 6(alcohol),phenol,alcohol(15.0~18.0); phenol(8.0~11.0)
Cc1ncc(CO)c(C=O)c1O,4.1,6:11,alcohol:phenol,3-Hydroxy-5-hydroxymethyl-2-methylpyridine-4-carboxaldehyde (Pyridoxal),[H₂L]/[HL][H],0.1,25.0,11:6,phenol:alcohol,11(phenol) > 6(alcohol),phenol,alcohol(15.0~18.0); phenol(8.0~11.0)
Cc1ncc(CO)c(C=O)c1O,4.15,6:11,alcohol:phenol,3-Hydroxy-5-hydroxymethyl-2-methylpyridine-4-carboxaldehyde (Pyridoxal),[H₂L]/[HL][H],0.5,25.0,11:6,phenol:alcohol,11(phenol) > 6(alcohol),phenol,alcohol(15.0~18.0); phenol(8.0~11.0)
Cc1ncc(CO)c(C=O)c1O,3.92,6:11,alcohol:phenol,3-Hydroxy-5-hydroxymethyl-2-methylpyridine-4-carboxaldehyde (Pyridoxal),[H₂L]/[HL][H],1.0,25.0,11:6,phenol:alcohol,11(phenol) > 6(alcohol),phenol,alcohol(15.0~18.0); phenol(8.0~11.0)
Cc1ncc(CO)c(CN)c1O,10.6,6:9:11,alcohol:amine_primary:phenol,4-Aminomethyl-3-hydroxy-5-hydroxymethyl-2-methylpyridine (Pyridoxamine),[HL]/[L][H],0.1,25.0,11:9:6,phenol:amine_primary:alcohol,11(phenol) > 9(amine_primary) > 6(alcohol),amine_primary,alcohol(15.0~18.0); amine_primary(9.0~11.0); phenol(8.0~11.0)
Cc1ncc(CO)c(CN)c1O,8.05,6:9:11,alcohol:amine_primary:phenol,4-Aminomethyl-3-hydroxy-5-hydroxymethyl-2-methylpyridine (Pyridoxamine),[H₂L]/[HL][H],0.1,25.0,11:9:6,phenol:amine_primary:alcohol,11(phenol) > 9(amine_primary) > 6(alcohol),phenol,alcohol(15.0~18.0); amine_primary(9.0~11.0); phenol(8.0~11.0)
Cc1ncc(CO)c(CN)c1O,3.38,6:9:11,alcohol:amine_primary:phenol,4-Aminomethyl-3-hydroxy-5-hydroxymethyl-2-methylpyridine (Pyridoxamine),[H₃L]/[H₂L][H],0.1,25.0,11:9:6,phenol:amine_primary:alcohol,11(phenol) > 9(amine_primary) > 6(alcohol),phenol,alcohol(15.0~18.0); amine_primary(9.0~11.0); phenol(8.0~11.0)
OCc1ccccn1,4.9,7,pyridine_nitrogen,2-(Hydroxymethyl)pyridine,[HL]/[L][H],0.1,25.0,7,pyridine_nitrogen,7(pyridine_nitrogen),Unknown,pyridine_nitrogen(Unknown)
OCc1ccccn1,4.95,7,pyridine_nitrogen,2-(Hydroxymethyl)pyridine,[HL]/[L][H],0.5,25.0,7,pyridine_nitrogen,7(pyridine_nitrogen),Unknown,pyridine_nitrogen(Unknown)
OCc1ccccn1,5.09,7,pyridine_nitrogen,2-(Hydroxymethyl)pyridine,[HL]/[L][H],0.5,20.0,7,pyridine_nitrogen,7(pyridine_nitrogen),Unknown,pyridine_nitrogen(Unknown)
OCc1ccccn1,5.25,7,pyridine_nitrogen,2-(Hydroxymethyl)pyridine,[HL]/[L][H],1.0,20.0,7,pyridine_nitrogen,7(pyridine_nitrogen),Unknown,pyridine_nitrogen(Unknown)
OCc1ccccn1,4.86,7,pyridine_nitrogen,2-(Hydroxymethyl)pyridine,[HL]/[L][H],0.0,25.0,7,pyridine_nitrogen,7(pyridine_nitrogen),Unknown,pyridine_nitrogen(Unknown)
Cc1cccc(CO)n1,5.43,11,ring_nitrogen,2-(Hydroxymethyl)-6-methylpyridine,[HL]/[L][H],0.0,25.0,11,ring_nitrogen,11(ring_nitrogen),Unknown,ring_nitrogen(Unknown)
OCCc1ccccn1,5.37,8,pyridine_nitrogen,2-(2-Hydroxyethyl)pyridine,[HL]/[L][H],0.1,25.0,8,pyridine_nitrogen,8(pyridine_nitrogen),Unknown,pyridine_nitrogen(Unknown)
OCCc1ccccn1,5.31,8,pyridine_nitrogen,2-(2-Hydroxyethyl)pyridine,[HL]/[L][H],0.0,25.0,8,pyridine_nitrogen,8(pyridine_nitrogen),Unknown,pyridine_nitrogen(Unknown)
Cc1cccc(CCO)n1,6.1,12,ring_nitrogen,2-(2-Hydroxyethyl)-6-methylpyridine,[HL]/[L][H],0.0,25.0,12,ring_nitrogen,12(ring_nitrogen),Unknown,ring_nitrogen(Unknown)
CC(O)Cc1ccccn1,5.48,9,pyridine_nitrogen,2-(2-Hydroxypropyl)pyridine,[HL]/[L][H],0.1,25.0,9,pyridine_nitrogen,9(pyridine_nitrogen),Unknown,pyridine_nitrogen(Unknown)
OC(Cc1ccccn1)c2ccccc2,5.2,8,pyridine_nitrogen,2-(2-Hydroxy-2-phenylethyl)pyridine,[HL]/[L][H],0.1,25.0,8,pyridine_nitrogen,8(pyridine_nitrogen),Unknown,pyridine_nitrogen(Unknown)
OCCCc1ccccn1,5.71,9,pyridine_nitrogen,2-(3-Hydroxypropyl)pyridine,[HL]/[L][H],0.1,25.0,9,pyridine_nitrogen,9(pyridine_nitrogen),Unknown,pyridine_nitrogen(Unknown)
OCCCc1ccccn1,5.61,9,pyridine_nitrogen,2-(3-Hydroxypropyl)pyridine,[HL]/[L][H],0.0,25.0,9,pyridine_nitrogen,9(pyridine_nitrogen),Unknown,pyridine_nitrogen(Unknown)
OCCCCc1ccccn1,5.83,10,pyridine_nitrogen,2-(4-Hydroxybutyl)pyridine,[HL]/[L][H],0.1,25.0,10,pyridine_nitrogen,10(pyridine_nitrogen),Unknown,pyridine_nitrogen(Unknown)
OCCCCCc1ccccn1,5.93,11,pyridine_nitrogen,2-(5-Hydroxypentyl)pyridine,[HL]/[L][H],0.1,25.0,11,pyridine_nitrogen,11(pyridine_nitrogen),Unknown,pyridine_nitrogen(Unknown)
OCc1cccnc1,5.0,6,pyridine_nitrogen,3-(Hydroxymethyl)pyridine,[HL]/[L][H],0.1,25.0,6,pyridine_nitrogen,6(pyridine_nitrogen),Unknown,pyridine_nitrogen(Unknown)
OCc1cccnc1,5.08,6,pyridine_nitrogen,3-(Hydroxymethyl)pyridine,[HL]/[L][H],0.5,25.0,6,pyridine_nitrogen,6(pyridine_nitrogen),Unknown,pyridine_nitrogen(Unknown)
OCc1cccnc1,5.1,6,pyridine_nitrogen,3-(Hydroxymethyl)pyridine,[HL]/[L][H],0.5,20.0,6,pyridine_nitrogen,6(pyridine_nitrogen),Unknown,pyridine_nitrogen(Unknown)
OCc1cccnc1,4.9,6,pyridine_nitrogen,3-(Hydroxymethyl)pyridine,[HL]/[L][H],0.0,25.0,6,pyridine_nitrogen,6(pyridine_nitrogen),Unknown,pyridine_nitrogen(Unknown)
OCCc1cccnc1,5.38,7,pyridine_nitrogen,3-(2-Hydroxyethyl)pyridine,[HL]/[L][H],0.1,25.0,7,pyridine_nitrogen,7(pyridine_nitrogen),Unknown,pyridine_nitrogen(Unknown)
OCCCc1cccnc1,5.57,8,pyridine_nitrogen,3-(3-Hydroxypropyl)pyridine,[HL]/[L][H],0.1,25.0,8,pyridine_nitrogen,8(pyridine_nitrogen),Unknown,pyridine_nitrogen(Unknown)
OCCCc1cccnc1,5.65,8,pyridine_nitrogen,3-(3-Hydroxypropyl)pyridine,[HL]/[L][H],0.5,25.0,8,pyridine_nitrogen,8(pyridine_nitrogen),Unknown,pyridine_nitrogen(Unknown)
OCCCc1cccnc1,5.47,8,pyridine_nitrogen,3-(3-Hydroxypropyl)pyridine,[HL]/[L][H],0.0,25.0,8,pyridine_nitrogen,8(pyridine_nitrogen),Unknown,pyridine_nitrogen(Unknown)
OCCCCc1cccnc1,5.7,9,pyridine_nitrogen,3-(4-Hydroxybutyl)pyridine,[HL]/[L][H],0.1,25.0,9,pyridine_nitrogen,9(pyridine_nitrogen),Unknown,pyridine_nitrogen(Unknown)
OCCCCCc1cccnc1,5.72,10,pyridine_nitrogen,3-(5-Hydroxypentyl)pyridine,[HL]/[L][H],0.1,25.0,10,pyridine_nitrogen,10(pyridine_nitrogen),Unknown,pyridine_nitrogen(Unknown)
OCc1ccncc1,5.41,5,pyridine_nitrogen,4-(Hydroxymethyl)pyridine,[HL]/[L][H],0.1,25.0,5,pyridine_nitrogen,5(pyridine_nitrogen),Unknown,pyridine_nitrogen(Unknown)
OCc1ccncc1,5.53,5,pyridine_nitrogen,4-(Hydroxymethyl)pyridine,[HL]/[L][H],0.5,25.0,5,pyridine_nitrogen,5(pyridine_nitrogen),Unknown,pyridine_nitrogen(Unknown)
OCc1ccncc1,5.33,5,pyridine_nitrogen,4-(Hydroxymethyl)pyridine,[HL]/[L][H],0.0,25.0,5,pyridine_nitrogen,5(pyridine_nitrogen),Unknown,pyridine_nitrogen(Unknown)
OCCc1ccncc1,5.68,6,pyridine_nitrogen,4-(2-Hydroxyethyl)pyridine,[HL]/[L][H],0.1,25.0,6,pyridine_nitrogen,6(pyridine_nitrogen),Unknown,pyridine_nitrogen(Unknown)
OCCc1ccncc1,5.6,6,pyridine_nitrogen,4-(2-Hydroxyethyl)pyridine,[HL]/[L][H],0.0,25.0,6,pyridine_nitrogen,6(pyridine_nitrogen),Unknown,pyridine_nitrogen(Unknown)
OCCCc1ccncc1,5.9,7,pyridine_nitrogen,4-(3-Hydroxypropyl)pyridine,[HL]/[L][H],0.1,25.0,7,pyridine_nitrogen,7(pyridine_nitrogen),Unknown,pyridine_nitrogen(Unknown)
OCCCc1ccncc1,5.84,7,pyridine_nitrogen,4-(3-Hydroxypropyl)pyridine,[HL]/[L][H],0.0,25.0,7,pyridine_nitrogen,7(pyridine_nitrogen),Unknown,pyridine_nitrogen(Unknown)
OCCCCc1ccncc1,6.01,8,pyridine_nitrogen,4-(4-Hydroxybutyl)pyridine,[HL]/[L][H],0.1,25.0,8,pyridine_nitrogen,8(pyridine_nitrogen),Unknown,pyridine_nitrogen(Unknown)
OCCCCCc1ccncc1,6.04,9,pyridine_nitrogen,4-(5-Hydroxypentyl)pyridine,[HL]/[L][H],0.1,25.0,9,pyridine_nitrogen,9(pyridine_nitrogen),Unknown,pyridine_nitrogen(Unknown)
OCc1cccc(CO)n1,4.39,12,ring_nitrogen,"2,6-Bis(hydroxymethyl)pyridine",[HL]/[L][H],0.5,20.0,12,ring_nitrogen,12(ring_nitrogen),Unknown,ring_nitrogen(Unknown)
COc1cccnc1,4.91,6,pyridine_nitrogen,3-Methoxypyridine,[HL]/[L][H],0.0,25.0,6,pyridine_nitrogen,6(pyridine_nitrogen),Unknown,pyridine_nitrogen(Unknown)
COc1cccnc1,4.88,6,pyridine_nitrogen,3-Methoxypyridine,[HL]/[L][H],0.0,20.0,6,pyridine_nitrogen,6(pyridine_nitrogen),Unknown,pyridine_nitrogen(Unknown)
COc1ccncc1,6.47,5,pyridine_nitrogen,4-Methoxypyridine,[HL]/[L][H],0.0,25.0,5,pyridine_nitrogen,5(pyridine_nitrogen),Unknown,pyridine_nitrogen(Unknown)
COc1cc(C)nc(C)c1,8.04,4,pyridine_nitrogen,"2,6-Dimethyl-4-methoxypyridine",[HL]/[L][H],0.5,25.0,4,pyridine_nitrogen,4(pyridine_nitrogen),Unknown,pyridine_nitrogen(Unknown)
O=Cc1ccccn1,3.92,7,pyridine_nitrogen,Pyridine-2-carboxaldehyde,[HL]/[L][H],0.5,20.0,7,pyridine_nitrogen,7(pyridine_nitrogen),Unknown,pyridine_nitrogen(Unknown)
O=Cc1ccccn1,3.8,7,pyridine_nitrogen,Pyridine-2-carboxaldehyde,[HL]/[L][H],0.0,25.0,7,pyridine_nitrogen,7(pyridine_nitrogen),Unknown,pyridine_nitrogen(Unknown)
O=Cc1cccnc1,3.7,6,pyridine_nitrogen,Pyridine-3-carboxaldehyde,[HL]/[L][H],0.0,25.0,6,pyridine_nitrogen,6(pyridine_nitrogen),Unknown,pyridine_nitrogen(Unknown)
O=Cc1ccncc1,4.53,5,pyridine_nitrogen,Pyridine-4-carboxaldehyde,[HL]/[L][H],0.0,25.0,5,pyridine_nitrogen,5(pyridine_nitrogen),Unknown,pyridine_nitrogen(Unknown)
O=Cc1cccc(C=O)n1,2.13,14,ring_nitrogen,"Pyridine-2,6-dicarboxaldehyde",[HL]/[L][H],0.5,25.0,14,ring_nitrogen,14(ring_nitrogen),Unknown,ring_nitrogen(Unknown)
CC(=O)c1ccccn1,2.66,8,pyridine_nitrogen,2-Acetylpyridine,[HL]/[L][H],0.0,25.0,8,pyridine_nitrogen,8(pyridine_nitrogen),Unknown,pyridine_nitrogen(Unknown)
CC(=O)c1cccnc1,3.48,7,pyridine_nitrogen,3-Acetylpyridine,[HL]/[L][H],0.5,25.0,7,pyridine_nitrogen,7(pyridine_nitrogen),Unknown,pyridine_nitrogen(Unknown)
CC(=O)c1cccnc1,3.28,7,pyridine_nitrogen,3-Acetylpyridine,[HL]/[L][H],0.0,25.0,7,pyridine_nitrogen,7(pyridine_nitrogen),Unknown,pyridine_nitrogen(Unknown)
CC(=O)c1ccncc1,3.7,6,pyridine_nitrogen,4-Acetylpyridine,[HL]/[L][H],0.5,25.0,6,pyridine_nitrogen,6(pyridine_nitrogen),Unknown,pyridine_nitrogen(Unknown)
CC(=O)c1ccncc1,3.51,6,pyridine_nitrogen,4-Acetylpyridine,[HL]/[L][H],0.0,25.0,6,pyridine_nitrogen,6(pyridine_nitrogen),Unknown,pyridine_nitrogen(Unknown)
CC(=O)c1c(C)cc(C)nc1C,5.91,6,pyridine_nitrogen,"3-Acetyl-2,4,6-trimethylpyridine",[HL]/[L][H],0.5,25.0,6,pyridine_nitrogen,6(pyridine_nitrogen),Unknown,pyridine_nitrogen(Unknown)
COC(=O)c1ccccn1,2.21,9,pyridine_nitrogen,Pyridine-2-carboxylic acid methyl ester (Picolinic acid methyl ester),[HL]/[L][H],0.0,22.0,9,pyridine_nitrogen,9(pyridine_nitrogen),Unknown,pyridine_nitrogen(Unknown)
COC(=O)c1cccnc1,3.13,8,pyridine_nitrogen,Pyridine-3-carboxylic acid methyl ester (Nicotinic acid methyl ester),[HL]/[L][H],0.0,22.0,8,pyridine_nitrogen,8(pyridine_nitrogen),Unknown,pyridine_nitrogen(Unknown)
COC(=O)c1ccncc1,3.26,7,pyridine_nitrogen,Pyridine-4-carboxylic acid methyl ester (Isonicotinic acid methyl ester),[HL]/[L][H],0.0,22.0,7,pyridine_nitrogen,7(pyridine_nitrogen),Unknown,pyridine_nitrogen(Unknown)
CCOC(=O)c1cc(C)nc(C)c1,5.27,6,pyridine_nitrogen,"2,6-Dimethylpyridine-4-carboxylic acid ethyl ester",[HL]/[L][H],0.5,25.0,6,pyridine_nitrogen,6(pyridine_nitrogen),Unknown,pyridine_nitrogen(Unknown)
NC(=O)c1ccccn1,1.8,8,pyridine_nitrogen,Pyridine-2-carboxylic acid amide (Picolinamide),[HL]/[L][H],0.1,25.0,8,pyridine_nitrogen,8(pyridine_nitrogen),Unknown,pyridine_nitrogen(Unknown)
NC(=O)c1cccnc1,3.31,7,pyridine_nitrogen,Pyridine-3-carboxylic acid amide (Nicotinamide),[HL]/[L][H],0.1,25.0,7,pyridine_nitrogen,7(pyridine_nitrogen),Unknown,pyridine_nitrogen(Unknown)
NC(=O)c1cccnc1,3.41,7,pyridine_nitrogen,Pyridine-3-carboxylic acid amide (Nicotinamide),[HL]/[L][H],0.5,25.0,7,pyridine_nitrogen,7(pyridine_nitrogen),Unknown,pyridine_nitrogen(Unknown)
NC(=O)c1cccnc1,3.35,7,pyridine_nitrogen,Pyridine-3-carboxylic acid amide (Nicotinamide),[HL]/[L][H],0.0,20.0,7,pyridine_nitrogen,7(pyridine_nitrogen),Unknown,pyridine_nitrogen(Unknown)
CNC(=O)c1cccnc1,3.45,8,pyridine_nitrogen,Pyridine-3-carboxylic acid methylamide,[HL]/[L][H],0.5,25.0,8,pyridine_nitrogen,8(pyridine_nitrogen),Unknown,pyridine_nitrogen(Unknown)
OCNC(=O)c1cccnc1,3.41,9,pyridine_nitrogen,Pyridine-3-carboxylic acid hydroxymethylamide,[HL]/[L][H],0.5,25.0,9,pyridine_nitrogen,9(pyridine_nitrogen),Unknown,pyridine_nitrogen(Unknown)
NC(=O)c1ccncc1,3.67,6,pyridine_nitrogen,Pyridine-4-carboxylic acid amide (Isonicotinamide),[HL]/[L][H],0.5,25.0,6,pyridine_nitrogen,6(pyridine_nitrogen),Unknown,pyridine_nitrogen(Unknown)
NC(=O)c1ccncc1,3.68,6,pyridine_nitrogen,Pyridine-4-carboxylic acid amide (Isonicotinamide),[HL]/[L][H],1.0,25.0,6,pyridine_nitrogen,6(pyridine_nitrogen),Unknown,pyridine_nitrogen(Unknown)
NC(=O)c1ccncc1,3.61,6,pyridine_nitrogen,Pyridine-4-carboxylic acid amide (Isonicotinamide),[HL]/[L][H],0.0,20.0,6,pyridine_nitrogen,6(pyridine_nitrogen),Unknown,pyridine_nitrogen(Unknown)
NC(=O)Cc1ccccn1,4.34,9,pyridine_nitrogen,2-Pyridylacetic acid amide,[HL]/[L][H],0.1,25.0,9,pyridine_nitrogen,9(pyridine_nitrogen),Unknown,pyridine_nitrogen(Unknown)
NC(=O)Cc1cccnc1,4.72,8,pyridine_nitrogen,3-Pyridylacetic acid amide,[HL]/[L][H],0.1,25.0,8,pyridine_nitrogen,8(pyridine_nitrogen),Unknown,pyridine_nitrogen(Unknown)
NC(=O)Cc1ccncc1,5.08,7,pyridine_nitrogen,4-Pyridylacetic acid amide,[HL]/[L][H],0.1,25.0,7,pyridine_nitrogen,7(pyridine_nitrogen),Unknown,pyridine_nitrogen(Unknown)
NC(=O)CCc1ccccn1,5.09,10,pyridine_nitrogen,3-(2-Pyridyl)propanoic acid amide,[HL]/[L][H],0.1,25.0,10,pyridine_nitrogen,10(pyridine_nitrogen),Unknown,pyridine_nitrogen(Unknown)
NC(=O)CCc1cccnc1,5.21,9,pyridine_nitrogen,3-(3-Pyridyl)propanoic acid amide,[HL]/[L][H],0.1,25.0,9,pyridine_nitrogen,9(pyridine_nitrogen),Unknown,pyridine_nitrogen(Unknown)
NC(=O)CCc1ccncc1,5.58,8,pyridine_nitrogen,3-(4-Pyridyl)propanoic acid amide,[HL]/[L][H],0.1,25.0,8,pyridine_nitrogen,8(pyridine_nitrogen),Unknown,pyridine_nitrogen(Unknown)
NC(=O)CCCc1ccccn1,5.48,11,pyridine_nitrogen,4-(2-Pyridyl)butanoic acid amide,[HL]/[L][H],0.1,25.0,11,pyridine_nitrogen,11(pyridine_nitrogen),Unknown,pyridine_nitrogen(Unknown)
NC(=O)CCCc1cccnc1,5.33,10,pyridine_nitrogen,4-(3-Pyridyl)butanoic acid amide,[HL]/[L][H],0.1,25.0,10,pyridine_nitrogen,10(pyridine_nitrogen),Unknown,pyridine_nitrogen(Unknown)
NC(=O)CCCc1ccncc1,5.64,9,pyridine_nitrogen,4-(4-Pyridyl)butanoic acid amide,[HL]/[L][H],0.1,25.0,9,pyridine_nitrogen,9(pyridine_nitrogen),Unknown,pyridine_nitrogen(Unknown)
NC(=O)CCCCc1ccccn1,5.73,12,pyridine_nitrogen,5-(2-Pyridyl)pentanoic acid amide,[HL]/[L][H],0.1,25.0,12,pyridine_nitrogen,12(pyridine_nitrogen),Unknown,pyridine_nitrogen(Unknown)
NC(=O)CCCCc1cccnc1,5.6,11,pyridine_nitrogen,5-(3-Pyridyl)pentanoic acid amide,[HL]/[L][H],0.1,25.0,11,pyridine_nitrogen,11(pyridine_nitrogen),Unknown,pyridine_nitrogen(Unknown)
NC(=O)CCCCc1ccncc1,5.92,10,pyridine_nitrogen,5-(4-Pyridyl)pentanoic acid amide,[HL]/[L][H],0.1,25.0,10,pyridine_nitrogen,10(pyridine_nitrogen),Unknown,pyridine_nitrogen(Unknown)
CC(=O)Nc1ccccn1,4.15,9,pyridine_nitrogen,2-(Acetamido)pyridine,[HL]/[L][H],0.5,25.0,9,pyridine_nitrogen,9(pyridine_nitrogen),Unknown,pyridine_nitrogen(Unknown)
CC(=O)Nc1cccnc1,4.57,8,pyridine_nitrogen,3-(Acetamido)pyridine,[HL]/[L][H],0.5,25.0,8,pyridine_nitrogen,8(pyridine_nitrogen),Unknown,pyridine_nitrogen(Unknown)
NNC(=O)c1ccncc1,10.47,7,pyridine_nitrogen,Pyridine-4-carboxylic acid hydrazide (Isonicotinoylhydrazide),[HL]/[L][H],0.15,37.0,7,pyridine_nitrogen,7(pyridine_nitrogen),Unknown,pyridine_nitrogen(Unknown)
NNC(=O)c1ccncc1,10.68,7,pyridine_nitrogen,Pyridine-4-carboxylic acid hydrazide (Isonicotinoylhydrazide),[HL]/[L][H],0.5,25.0,7,pyridine_nitrogen,7(pyridine_nitrogen),Unknown,pyridine_nitrogen(Unknown)
NNC(=O)c1ccncc1,10.66,7,pyridine_nitrogen,Pyridine-4-carboxylic acid hydrazide (Isonicotinoylhydrazide),[HL]/[L][H],1.0,25.0,7,pyridine_nitrogen,7(pyridine_nitrogen),Unknown,pyridine_nitrogen(Unknown)
NNC(=O)c1ccncc1,3.53,7,pyridine_nitrogen,Pyridine-4-carboxylic acid hydrazide (Isonicotinoylhydrazide),[H₂L]/[HL][H],0.15,37.0,7,pyridine_nitrogen,7(pyridine_nitrogen),Unknown,pyridine_nitrogen(Unknown)