SMILES,pKa,Dissociable_Atoms,Functional_Group,Name,Equilibrium,Ionic,Temperature,Dissociable_Atoms_Ordered,Functional_Group_Ordered,Dissociation_Order,Dissociating_Group,Functional_Group_pKa_Ranges
N[C@@H](Cc1ccccc1)C(O)=O,2.29,0:5,amine_primary:carboxylic_acid,L-2-Amino-3-phenylpropanoic acid (Phenylalanine),[H₂L]/[HL][H],0.5,25.0,5:0,carboxylic_acid:amine_primary,5(carboxylic_acid) > 0(amine_primary),carboxylic_acid,amine_primary(9.0~11.0); carboxylic_acid(1.5~5.0)
N[C@@H](Cc1ccccc1)C(O)=O,2.28,0:5,amine_primary:carboxylic_acid,L-2-Amino-3-phenylpropanoic acid (Phenylalanine),[H₂L]/[HL][H],1.0,25.0,5:0,carboxylic_acid:amine_primary,5(carboxylic_acid) > 0(amine_primary),carboxylic_acid,amine_primary(9.0~11.0); carboxylic_acid(1.5~5.0)
N[C@@H](Cc1ccccc1)C(O)=O,2.75,0:5,amine_primary:carboxylic_acid,L-2-Amino-3-phenylpropanoic acid (Phenylalanine),[H₂L]/[HL][H],3.0,25.0,5:0,carboxylic_acid:amine_primary,5(carboxylic_acid) > 0(amine_primary),carboxylic_acid,amine_primary(9.0~11.0); carboxylic_acid(1.5~5.0)
N[C@@H](Cc1ccccc1)C(O)=O,2.2,0:5,amine_primary:carboxylic_acid,L-2-Amino-3-phenylpropanoic acid (Phenylalanine),[H₂L]/[HL][H],0.0,25.0,5:0,carboxylic_acid:amine_primary,5(carboxylic_acid) > 0(amine_primary),carboxylic_acid,amine_primary(9.0~11.0); carboxylic_acid(1.5~5.0)
OC(=O)CNc1ccc(cc1)[S](O)(=O)=O,8.66,0:4,carboxylic_acid:amine_secondary,DL-Amino-4-sulfophenylacetic acid (4-Sulfophenylglycine),[HL]/[L][H],0.1,25.0,0:4,carboxylic_acid:amine_secondary,0(carboxylic_acid) > 4(amine_secondary),amine_secondary,carboxylic_acid(1.5~5.0); amine_secondary(9.5~11.5)
OC(=O)CNc1ccc(cc1)[S](O)(=O)=O,1.8,0:4,carboxylic_acid:amine_secondary,DL-Amino-4-sulfophenylacetic acid (4-Sulfophenylglycine),[H₂L]/[HL][H],0.1,25.0,0:4,carboxylic_acid:amine_secondary,0(carboxylic_acid) > 4(amine_secondary),carboxylic_acid,carboxylic_acid(1.5~5.0); amine_secondary(9.5~11.5)
N[C@@H](CC[S](O)(=O)=O)C(O)=O,8.93,9:0,carboxylic_acid:amine_primary,DL-2-Amino-4-sulfobutanoic acid (Homocysteic acid),[HL]/[L][H],0.1,25.0,9:0,carboxylic_acid:amine_primary,9(carboxylic_acid) > 0(amine_primary),amine_primary,carboxylic_acid(1.5~5.0); amine_primary(9.0~11.0)
N[C@@H](CC[S](O)(=O)=O)C(O)=O,2.11,9:0,carboxylic_acid:amine_primary,DL-2-Amino-4-sulfobutanoic acid (Homocysteic acid),[H₂L]/[HL][H],0.1,25.0,9:0,carboxylic_acid:amine_primary,9(carboxylic_acid) > 0(amine_primary),carboxylic_acid,carboxylic_acid(1.5~5.0); amine_primary(9.0~11.0)
NCCC(O)=O,10.08,0:4,amine_primary:carboxylic_acid,3-Aminopropanoic acid (beta-Alanine),[HL]/[L][H],0.1,25.0,4:0,carboxylic_acid:amine_primary,4(carboxylic_acid) > 0(amine_primary),amine_primary,amine_primary(9.0~11.0); carboxylic_acid(1.5~5.0)
NCCC(O)=O,9.75,0:4,amine_primary:carboxylic_acid,3-Aminopropanoic acid (beta-Alanine),[HL]/[L][H],0.15,37.0,4:0,carboxylic_acid:amine_primary,4(carboxylic_acid) > 0(amine_primary),amine_primary,amine_primary(9.0~11.0); carboxylic_acid(1.5~5.0)
NCCC(O)=O,10.05,0:4,amine_primary:carboxylic_acid,3-Aminopropanoic acid (beta-Alanine),[HL]/[L][H],0.5,25.0,4:0,carboxylic_acid:amine_primary,4(carboxylic_acid) > 0(amine_primary),amine_primary,amine_primary(9.0~11.0); carboxylic_acid(1.5~5.0)
NCCC(O)=O,10.14,0:4,amine_primary:carboxylic_acid,3-Aminopropanoic acid (beta-Alanine),[HL]/[L][H],1.0,25.0,4:0,carboxylic_acid:amine_primary,4(carboxylic_acid) > 0(amine_primary),amine_primary,amine_primary(9.0~11.0); carboxylic_acid(1.5~5.0)
NCCC(O)=O,10.65,0:4,amine_primary:carboxylic_acid,3-Aminopropanoic acid (beta-Alanine),[HL]/[L][H],3.0,25.0,4:0,carboxylic_acid:amine_primary,4(carboxylic_acid) > 0(amine_primary),amine_primary,amine_primary(9.0~11.0); carboxylic_acid(1.5~5.0)
NCCC(O)=O,10.71,0:4,amine_primary:carboxylic_acid,3-Aminopropanoic acid (beta-Alanine),[HL]/[L][H],3.0,25.0,4:0,carboxylic_acid:amine_primary,4(carboxylic_acid) > 0(amine_primary),amine_primary,amine_primary(9.0~11.0); carboxylic_acid(1.5~5.0)
NCCC(O)=O,11.14,0:4,amine_primary:carboxylic_acid,3-Aminopropanoic acid (beta-Alanine),[HL]/[L][H],5.0,25.0,4:0,carboxylic_acid:amine_primary,4(carboxylic_acid) > 0(amine_primary),amine_primary,amine_primary(9.0~11.0); carboxylic_acid(1.5~5.0)
NCCC(O)=O,10.582,0:4,amine_primary:carboxylic_acid,3-Aminopropanoic acid (beta-Alanine),[HL]/[L][H],0.0,15.0,4:0,carboxylic_acid:amine_primary,4(carboxylic_acid) > 0(amine_primary),amine_primary,amine_primary(9.0~11.0); carboxylic_acid(1.5~5.0)
NCCC(O)=O,10.295,0:4,amine_primary:carboxylic_acid,3-Aminopropanoic acid (beta-Alanine),[HL]/[L][H],0.0,25.0,4:0,carboxylic_acid:amine_primary,4(carboxylic_acid) > 0(amine_primary),amine_primary,amine_primary(9.0~11.0); carboxylic_acid(1.5~5.0)
NCCC(O)=O,10.029,0:4,amine_primary:carboxylic_acid,3-Aminopropanoic acid (beta-Alanine),[HL]/[L][H],0.0,35.0,4:0,carboxylic_acid:amine_primary,4(carboxylic_acid) > 0(amine_primary),amine_primary,amine_primary(9.0~11.0); carboxylic_acid(1.5~5.0)
NCCC(O)=O,3.51,0:4,amine_primary:carboxylic_acid,3-Aminopropanoic acid (beta-Alanine),[H₂L]/[HL][H],0.1,25.0,4:0,carboxylic_acid:amine_primary,4(carboxylic_acid) > 0(amine_primary),carboxylic_acid,amine_primary(9.0~11.0); carboxylic_acid(1.5~5.0)
NCCC(O)=O,3.47,0:4,amine_primary:carboxylic_acid,3-Aminopropanoic acid (beta-Alanine),[H₂L]/[HL][H],0.15,37.0,4:0,carboxylic_acid:amine_primary,4(carboxylic_acid) > 0(amine_primary),carboxylic_acid,amine_primary(9.0~11.0); carboxylic_acid(1.5~5.0)
NCCC(O)=O,3.48,0:4,amine_primary:carboxylic_acid,3-Aminopropanoic acid (beta-Alanine),[H₂L]/[HL][H],0.5,25.0,4:0,carboxylic_acid:amine_primary,4(carboxylic_acid) > 0(amine_primary),carboxylic_acid,amine_primary(9.0~11.0); carboxylic_acid(1.5~5.0)
NCCC(O)=O,3.67,0:4,amine_primary:carboxylic_acid,3-Aminopropanoic acid (beta-Alanine),[H₂L]/[HL][H],1.0,25.0,4:0,carboxylic_acid:amine_primary,4(carboxylic_acid) > 0(amine_primary),carboxylic_acid,amine_primary(9.0~11.0); carboxylic_acid(1.5~5.0)
NCCC(O)=O,4.03,0:4,amine_primary:carboxylic_acid,3-Aminopropanoic acid (beta-Alanine),[H₂L]/[HL][H],3.0,25.0,4:0,carboxylic_acid:amine_primary,4(carboxylic_acid) > 0(amine_primary),carboxylic_acid,amine_primary(9.0~11.0); carboxylic_acid(1.5~5.0)
NCCC(O)=O,4.19,0:4,amine_primary:carboxylic_acid,3-Aminopropanoic acid (beta-Alanine),[H₂L]/[HL][H],3.0,25.0,4:0,carboxylic_acid:amine_primary,4(carboxylic_acid) > 0(amine_primary),carboxylic_acid,amine_primary(9.0~11.0); carboxylic_acid(1.5~5.0)
NCCC(O)=O,4.37,0:4,amine_primary:carboxylic_acid,3-Aminopropanoic acid (beta-Alanine),[H₂L]/[HL][H],5.0,25.0,4:0,carboxylic_acid:amine_primary,4(carboxylic_acid) > 0(amine_primary),carboxylic_acid,amine_primary(9.0~11.0); carboxylic_acid(1.5~5.0)
NCCC(O)=O,3.609,0:4,amine_primary:carboxylic_acid,3-Aminopropanoic acid (beta-Alanine),[H₂L]/[HL][H],0.0,10.0,4:0,carboxylic_acid:amine_primary,4(carboxylic_acid) > 0(amine_primary),carboxylic_acid,amine_primary(9.0~11.0); carboxylic_acid(1.5~5.0)
NCCC(O)=O,3.551,0:4,amine_primary:carboxylic_acid,3-Aminopropanoic acid (beta-Alanine),[H₂L]/[HL][H],0.0,25.0,4:0,carboxylic_acid:amine_primary,4(carboxylic_acid) > 0(amine_primary),carboxylic_acid,amine_primary(9.0~11.0); carboxylic_acid(1.5~5.0)
NCCC(O)=O,3.52,0:4,amine_primary:carboxylic_acid,3-Aminopropanoic acid (beta-Alanine),[H₂L]/[HL][H],0.0,40.0,4:0,carboxylic_acid:amine_primary,4(carboxylic_acid) > 0(amine_primary),carboxylic_acid,amine_primary(9.0~11.0); carboxylic_acid(1.5~5.0)
N[C@H]1CCC[C@H]1C(O)=O,10.1,0:7,amine_primary:carboxylic_acid,cis-2-Aminocyclopentane-1-carboxylic acid,[HL]/[L][H],0.5,25.0,7:0,carboxylic_acid:amine_primary,7(carboxylic_acid) > 0(amine_primary),amine_primary,amine_primary(9.0~11.0); carboxylic_acid(1.5~5.0)
N[C@H]1CCC[C@H]1C(O)=O,3.54,0:7,amine_primary:carboxylic_acid,cis-2-Aminocyclopentane-1-carboxylic acid,[H₂L]/[HL][H],0.5,25.0,7:0,carboxylic_acid:amine_primary,7(carboxylic_acid) > 0(amine_primary),carboxylic_acid,amine_primary(9.0~11.0); carboxylic_acid(1.5~5.0)
N[C@@H]1CCC[C@H]1C(O)=O,9.91,0:7,amine_primary:carboxylic_acid,trans-2-Aminocyclopentane-1-carboxylic acid,[HL]/[L][H],0.5,25.0,7:0,carboxylic_acid:amine_primary,7(carboxylic_acid) > 0(amine_primary),amine_primary,amine_primary(9.0~11.0); carboxylic_acid(1.5~5.0)
N[C@@H]1CCC[C@H]1C(O)=O,3.75,0:7,amine_primary:carboxylic_acid,trans-2-Aminocyclopentane-1-carboxylic acid,[H₂L]/[HL][H],0.5,25.0,7:0,carboxylic_acid:amine_primary,7(carboxylic_acid) > 0(amine_primary),carboxylic_acid,amine_primary(9.0~11.0); carboxylic_acid(1.5~5.0)
N[C@H]1CCCC[C@H]1C(O)=O,10.54,0:8,amine_primary:carboxylic_acid,cis-2-Aminocyclohexane-1-carboxylic acid,[HL]/[L][H],0.5,25.0,8:0,carboxylic_acid:amine_primary,8(carboxylic_acid) > 0(amine_primary),amine_primary,amine_primary(9.0~11.0); carboxylic_acid(1.5~5.0)
N[C@H]1CCCC[C@H]1C(O)=O,3.49,0:8,amine_primary:carboxylic_acid,cis-2-Aminocyclohexane-1-carboxylic acid,[H₂L]/[HL][H],0.5,25.0,8:0,carboxylic_acid:amine_primary,8(carboxylic_acid) > 0(amine_primary),carboxylic_acid,amine_primary(9.0~11.0); carboxylic_acid(1.5~5.0)
N[C@@H]1CCCC[C@H]1C(O)=O,10.01,0:8,amine_primary:carboxylic_acid,trans-2-Aminocyclohexane-1-carboxylic acid,[HL]/[L][H],0.5,25.0,8:0,carboxylic_acid:amine_primary,8(carboxylic_acid) > 0(amine_primary),amine_primary,amine_primary(9.0~11.0); carboxylic_acid(1.5~5.0)
N[C@@H]1CCCC[C@H]1C(O)=O,3.47,0:8,amine_primary:carboxylic_acid,trans-2-Aminocyclohexane-1-carboxylic acid,[H₂L]/[HL][H],0.5,25.0,8:0,carboxylic_acid:amine_primary,8(carboxylic_acid) > 0(amine_primary),carboxylic_acid,amine_primary(9.0~11.0); carboxylic_acid(1.5~5.0)
N[C@H]1CC=CC[C@H]1C(O)=O,10.2,0:8,amine_primary:carboxylic_acid,cis-2-Amino-4-cyclohexene-1-carboxylic acid,[HL]/[L][H],0.5,25.0,8:0,carboxylic_acid:amine_primary,8(carboxylic_acid) > 0(amine_primary),amine_primary,amine_primary(9.0~11.0); carboxylic_acid(1.5~5.0)
N[C@H]1CC=CC[C@H]1C(O)=O,3.29,0:8,amine_primary:carboxylic_acid,cis-2-Amino-4-cyclohexene-1-carboxylic acid,[H₂L]/[HL][H],0.5,25.0,8:0,carboxylic_acid:amine_primary,8(carboxylic_acid) > 0(amine_primary),carboxylic_acid,amine_primary(9.0~11.0); carboxylic_acid(1.5~5.0)
N[C@@H]1CC=CC[C@H]1C(O)=O,10.29,0:8,amine_primary:carboxylic_acid,trans-2-Amino-4-cyclohexene-1-carboxylic acid,[HL]/[L][H],0.5,25.0,8:0,carboxylic_acid:amine_primary,8(carboxylic_acid) > 0(amine_primary),amine_primary,amine_primary(9.0~11.0); carboxylic_acid(1.5~5.0)
N[C@@H]1CC=CC[C@H]1C(O)=O,3.33,0:8,amine_primary:carboxylic_acid,trans-2-Amino-4-cyclohexene-1-carboxylic acid,[H₂L]/[HL][H],0.5,25.0,8:0,carboxylic_acid:amine_primary,8(carboxylic_acid) > 0(amine_primary),carboxylic_acid,amine_primary(9.0~11.0); carboxylic_acid(1.5~5.0)
OC(=O)CCNc1ccccc1,9.0,0:5,carboxylic_acid:amine_secondary,DL-3-Amino-3-phenylpropanoic acid (Phenyl-beta-Alanine),[HL]/[L][H],0.5,25.0,0:5,carboxylic_acid:amine_secondary,0(carboxylic_acid) > 5(amine_secondary),amine_secondary,carboxylic_acid(1.5~5.0); amine_secondary(9.5~11.5)
OC(=O)CCNc1ccccc1,3.4,0:5,carboxylic_acid:amine_secondary,DL-3-Amino-3-phenylpropanoic acid (Phenyl-beta-Alanine),[H₂L]/[HL][H],0.5,25.0,0:5,carboxylic_acid:amine_secondary,0(carboxylic_acid) > 5(amine_secondary),carboxylic_acid,carboxylic_acid(1.5~5.0); amine_secondary(9.5~11.5)
NCCCC(O)=O,10.35,0:5,amine_primary:carboxylic_acid,4-Aminobutanoic acid,[HL]/[L][H],0.1,25.0,5:0,carboxylic_acid:amine_primary,5(carboxylic_acid) > 0(amine_primary),amine_primary,amine_primary(9.0~11.0); carboxylic_acid(1.5~5.0)
NCCCC(O)=O,10.03,0:5,amine_primary:carboxylic_acid,4-Aminobutanoic acid,[HL]/[L][H],0.15,37.0,5:0,carboxylic_acid:amine_primary,5(carboxylic_acid) > 0(amine_primary),amine_primary,amine_primary(9.0~11.0); carboxylic_acid(1.5~5.0)
NCCCC(O)=O,10.33,0:5,amine_primary:carboxylic_acid,4-Aminobutanoic acid,[HL]/[L][H],0.5,25.0,5:0,carboxylic_acid:amine_primary,5(carboxylic_acid) > 0(amine_primary),amine_primary,amine_primary(9.0~11.0); carboxylic_acid(1.5~5.0)
NCCCC(O)=O,10.43,0:5,amine_primary:carboxylic_acid,4-Aminobutanoic acid,[HL]/[L][H],1.0,25.0,5:0,carboxylic_acid:amine_primary,5(carboxylic_acid) > 0(amine_primary),amine_primary,amine_primary(9.0~11.0); carboxylic_acid(1.5~5.0)
NCCCC(O)=O,11.33,0:5,amine_primary:carboxylic_acid,4-Aminobutanoic acid,[HL]/[L][H],5.0,25.0,5:0,carboxylic_acid:amine_primary,5(carboxylic_acid) > 0(amine_primary),amine_primary,amine_primary(9.0~11.0); carboxylic_acid(1.5~5.0)
NCCCC(O)=O,11.026,0:5,amine_primary:carboxylic_acid,4-Aminobutanoic acid,[HL]/[L][H],0.0,10.0,5:0,carboxylic_acid:amine_primary,5(carboxylic_acid) > 0(amine_primary),amine_primary,amine_primary(9.0~11.0); carboxylic_acid(1.5~5.0)
NCCCC(O)=O,10.556,0:5,amine_primary:carboxylic_acid,4-Aminobutanoic acid,[HL]/[L][H],0.0,25.0,5:0,carboxylic_acid:amine_primary,5(carboxylic_acid) > 0(amine_primary),amine_primary,amine_primary(9.0~11.0); carboxylic_acid(1.5~5.0)
NCCCC(O)=O,10.134,0:5,amine_primary:carboxylic_acid,4-Aminobutanoic acid,[HL]/[L][H],0.0,40.0,5:0,carboxylic_acid:amine_primary,5(carboxylic_acid) > 0(amine_primary),amine_primary,amine_primary(9.0~11.0); carboxylic_acid(1.5~5.0)
NCCCC(O)=O,4.02,0:5,amine_primary:carboxylic_acid,4-Aminobutanoic acid,[H₂L]/[HL][H],0.1,25.0,5:0,carboxylic_acid:amine_primary,5(carboxylic_acid) > 0(amine_primary),carboxylic_acid,amine_primary(9.0~11.0); carboxylic_acid(1.5~5.0)
NCCCC(O)=O,3.97,0:5,amine_primary:carboxylic_acid,4-Aminobutanoic acid,[H₂L]/[HL][H],0.15,37.0,5:0,carboxylic_acid:amine_primary,5(carboxylic_acid) > 0(amine_primary),carboxylic_acid,amine_primary(9.0~11.0); carboxylic_acid(1.5~5.0)
NCCCC(O)=O,4.0,0:5,amine_primary:carboxylic_acid,4-Aminobutanoic acid,[H₂L]/[HL][H],0.5,25.0,5:0,carboxylic_acid:amine_primary,5(carboxylic_acid) > 0(amine_primary),carboxylic_acid,amine_primary(9.0~11.0); carboxylic_acid(1.5~5.0)
NCCCC(O)=O,4.09,0:5,amine_primary:carboxylic_acid,4-Aminobutanoic acid,[H₂L]/[HL][H],1.0,25.0,5:0,carboxylic_acid:amine_primary,5(carboxylic_acid) > 0(amine_primary),carboxylic_acid,amine_primary(9.0~11.0); carboxylic_acid(1.5~5.0)
NCCCC(O)=O,4.87,0:5,amine_primary:carboxylic_acid,4-Aminobutanoic acid,[H₂L]/[HL][H],5.0,25.0,5:0,carboxylic_acid:amine_primary,5(carboxylic_acid) > 0(amine_primary),carboxylic_acid,amine_primary(9.0~11.0); carboxylic_acid(1.5~5.0)
NCCCC(O)=O,4.057,0:5,amine_primary:carboxylic_acid,4-Aminobutanoic acid,[H₂L]/[HL][H],0.0,10.0,5:0,carboxylic_acid:amine_primary,5(carboxylic_acid) > 0(amine_primary),carboxylic_acid,amine_primary(9.0~11.0); carboxylic_acid(1.5~5.0)
NCCCC(O)=O,4.031,0:5,amine_primary:carboxylic_acid,4-Aminobutanoic acid,[H₂L]/[HL][H],0.0,25.0,5:0,carboxylic_acid:amine_primary,5(carboxylic_acid) > 0(amine_primary),carboxylic_acid,amine_primary(9.0~11.0); carboxylic_acid(1.5~5.0)
NCCCC(O)=O,4.027,0:5,amine_primary:carboxylic_acid,4-Aminobutanoic acid,[H₂L]/[HL][H],0.0,40.0,5:0,carboxylic_acid:amine_primary,5(carboxylic_acid) > 0(amine_primary),carboxylic_acid,amine_primary(9.0~11.0); carboxylic_acid(1.5~5.0)
NCCCCC(O)=O,10.6,0:6,amine_primary:carboxylic_acid,5-Aminopentanoic acid,[HL]/[L][H],0.5,25.0,6:0,carboxylic_acid:amine_primary,6(carboxylic_acid) > 0(amine_primary),amine_primary,amine_primary(9.0~11.0); carboxylic_acid(1.5~5.0)
NCCCCC(O)=O,10.766,0:6,amine_primary:carboxylic_acid,5-Aminopentanoic acid,[HL]/[L][H],0.0,25.0,6:0,carboxylic_acid:amine_primary,6(carboxylic_acid) > 0(amine_primary),amine_primary,amine_primary(9.0~11.0); carboxylic_acid(1.5~5.0)
NCCCCC(O)=O,4.2,0:6,amine_primary:carboxylic_acid,5-Aminopentanoic acid,[H₂L]/[HL][H],0.5,25.0,6:0,carboxylic_acid:amine_primary,6(carboxylic_acid) > 0(amine_primary),carboxylic_acid,amine_primary(9.0~11.0); carboxylic_acid(1.5~5.0)
NCCCCC(O)=O,4.26,0:6,amine_primary:carboxylic_acid,5-Aminopentanoic acid,[H₂L]/[HL][H],0.0,10.0,6:0,carboxylic_acid:amine_primary,6(carboxylic_acid) > 0(amine_primary),carboxylic_acid,amine_primary(9.0~11.0); carboxylic_acid(1.5~5.0)
NCCCCC(O)=O,4.27,0:6,amine_primary:carboxylic_acid,5-Aminopentanoic acid,[H₂L]/[HL][H],0.0,25.0,6:0,carboxylic_acid:amine_primary,6(carboxylic_acid) > 0(amine_primary),carboxylic_acid,amine_primary(9.0~11.0); carboxylic_acid(1.5~5.0)
NCCCCC(O)=O,4.25,0:6,amine_primary:carboxylic_acid,5-Aminopentanoic acid,[H₂L]/[HL][H],0.0,40.0,6:0,carboxylic_acid:amine_primary,6(carboxylic_acid) > 0(amine_primary),carboxylic_acid,amine_primary(9.0~11.0); carboxylic_acid(1.5~5.0)
NCCCCCC(O)=O,10.67,0:7,amine_primary:carboxylic_acid,6-Aminohexanoic acid,[HL]/[L][H],0.5,25.0,7:0,carboxylic_acid:amine_primary,7(carboxylic_acid) > 0(amine_primary),amine_primary,amine_primary(9.0~11.0); carboxylic_acid(1.5~5.0)
NCCCCCC(O)=O,11.45,0:7,amine_primary:carboxylic_acid,6-Aminohexanoic acid,[HL]/[L][H],3.0,25.0,7:0,carboxylic_acid:amine_primary,7(carboxylic_acid) > 0(amine_primary),amine_primary,amine_primary(9.0~11.0); carboxylic_acid(1.5~5.0)
NCCCCCC(O)=O,11.334,0:7,amine_primary:carboxylic_acid,6-Aminohexanoic acid,[HL]/[L][H],0.0,10.0,7:0,carboxylic_acid:amine_primary,7(carboxylic_acid) > 0(amine_primary),amine_primary,amine_primary(9.0~11.0); carboxylic_acid(1.5~5.0)
NCCCCCC(O)=O,10.804,0:7,amine_primary:carboxylic_acid,6-Aminohexanoic acid,[HL]/[L][H],0.0,25.0,7:0,carboxylic_acid:amine_primary,7(carboxylic_acid) > 0(amine_primary),amine_primary,amine_primary(9.0~11.0); carboxylic_acid(1.5~5.0)
NCCCCCC(O)=O,10.328,0:7,amine_primary:carboxylic_acid,6-Aminohexanoic acid,[HL]/[L][H],0.0,40.0,7:0,carboxylic_acid:amine_primary,7(carboxylic_acid) > 0(amine_primary),amine_primary,amine_primary(9.0~11.0); carboxylic_acid(1.5~5.0)
NCCCCCC(O)=O,4.33,0:7,amine_primary:carboxylic_acid,6-Aminohexanoic acid,[H₂L]/[HL][H],0.5,25.0,7:0,carboxylic_acid:amine_primary,7(carboxylic_acid) > 0(amine_primary),carboxylic_acid,amine_primary(9.0~11.0); carboxylic_acid(1.5~5.0)
NCCCCCC(O)=O,5.06,0:7,amine_primary:carboxylic_acid,6-Aminohexanoic acid,[H₂L]/[HL][H],3.0,25.0,7:0,carboxylic_acid:amine_primary,7(carboxylic_acid) > 0(amine_primary),carboxylic_acid,amine_primary(9.0~11.0); carboxylic_acid(1.5~5.0)
NCCCCCC(O)=O,4.392,0:7,amine_primary:carboxylic_acid,6-Aminohexanoic acid,[H₂L]/[HL][H],0.0,10.0,7:0,carboxylic_acid:amine_primary,7(carboxylic_acid) > 0(amine_primary),carboxylic_acid,amine_primary(9.0~11.0); carboxylic_acid(1.5~5.0)
NCCCCCC(O)=O,4.373,0:7,amine_primary:carboxylic_acid,6-Aminohexanoic acid,[H₂L]/[HL][H],0.0,25.0,7:0,carboxylic_acid:amine_primary,7(carboxylic_acid) > 0(amine_primary),carboxylic_acid,amine_primary(9.0~11.0); carboxylic_acid(1.5~5.0)
NCCCCCC(O)=O,4.388,0:7,amine_primary:carboxylic_acid,6-Aminohexanoic acid,[H₂L]/[HL][H],0.0,40.0,7:0,carboxylic_acid:amine_primary,7(carboxylic_acid) > 0(amine_primary),carboxylic_acid,amine_primary(9.0~11.0); carboxylic_acid(1.5~5.0)
NCCCCCCC(O)=O,4.502,0:8,amine_primary:carboxylic_acid,7-Aminoheptanoic acid,[H₂L]/[HL][H],0.0,25.0,8:0,carboxylic_acid:amine_primary,8(carboxylic_acid) > 0(amine_primary),carboxylic_acid,amine_primary(9.0~11.0); carboxylic_acid(1.5~5.0)
NC(C(O)=O)C(O)=O,9.22,0:3:6,amine_primary:carboxylic_acid:carboxylic_acid,Aminopropanedioic acid (Aminomalonic acid),[HL]/[L][H],0.1,25.0,3:6:0,carboxylic_acid:carboxylic_acid:amine_primary,3(carboxylic_acid) > 6(carboxylic_acid) > 0(amine_primary),amine_primary,amine_primary(9.0~11.0); carboxylic_acid(1.5~5.0); carboxylic_acid(1.5~5.0)
NC(C(O)=O)C(O)=O,9.83,0:3:6,amine_primary:carboxylic_acid:carboxylic_acid,Aminopropanedioic acid (Aminomalonic acid),[HL]/[L][H],0.0,20.0,3:6:0,carboxylic_acid:carboxylic_acid:amine_primary,3(carboxylic_acid) > 6(carboxylic_acid) > 0(amine_primary),amine_primary,amine_primary(9.0~11.0); carboxylic_acid(1.5~5.0); carboxylic_acid(1.5~5.0)
NC(C(O)=O)C(O)=O,2.94,0:3:6,amine_primary:carboxylic_acid:carboxylic_acid,Aminopropanedioic acid (Aminomalonic acid),[H₂L]/[HL][H],0.1,25.0,3:6:0,carboxylic_acid:carboxylic_acid:amine_primary,3(carboxylic_acid) > 6(carboxylic_acid) > 0(amine_primary),carboxylic_acid,amine_primary(9.0~11.0); carboxylic_acid(1.5~5.0); carboxylic_acid(1.5~5.0)