SMILES,pKa,Dissociable_Atoms,Functional_Group,Name,Equilibrium,Ionic,Temperature,Dissociable_Atoms_Ordered,Functional_Group_Ordered,Dissociation_Order,Dissociating_Group,Functional_Group_pKa_Ranges
[nH]1ccnc1,6.993,0,amine_secondary,"1,3-Diazole (Imidazole)",[HL]/[L][H],0.0,25.0,0,amine_secondary,0(amine_secondary),amine_secondary,amine_secondary(9.5~11.5)
[nH]1ccnc1,6.685,0,amine_secondary,"1,3-Diazole (Imidazole)",[HL]/[L][H],0.0,40.0,0,amine_secondary,0(amine_secondary),amine_secondary,amine_secondary(9.5~11.5)
Cn1ccnc1,7.1,1,imidazole_nitrogen,1-Methylimidazole,[HL]/[L][H],0.1,25.0,1,imidazole_nitrogen,1(imidazole_nitrogen),Unknown,imidazole_nitrogen(Unknown)
Cn1ccnc1,7.2,1,imidazole_nitrogen,1-Methylimidazole,[HL]/[L][H],0.5,25.0,1,imidazole_nitrogen,1(imidazole_nitrogen),Unknown,imidazole_nitrogen(Unknown)
Cn1ccnc1,7.31,1,imidazole_nitrogen,1-Methylimidazole,[HL]/[L][H],1.0,25.0,1,imidazole_nitrogen,1(imidazole_nitrogen),Unknown,imidazole_nitrogen(Unknown)
CCn1ccnc1,7.21,2,imidazole_nitrogen,1-Ethylimidazole,[HL]/[L][H],0.5,25.0,2,imidazole_nitrogen,2(imidazole_nitrogen),Unknown,imidazole_nitrogen(Unknown)
CCCn1ccnc1,7.22,3,imidazole_nitrogen,1-Propylimidazole,[HL]/[L][H],0.5,25.0,3,imidazole_nitrogen,3(imidazole_nitrogen),Unknown,imidazole_nitrogen(Unknown)
CCCCn1ccnc1,7.22,4,imidazole_nitrogen,1-Butylimidazole,[HL]/[L][H],0.5,25.0,4,imidazole_nitrogen,4(imidazole_nitrogen),Unknown,imidazole_nitrogen(Unknown)
Cc1[nH]ccn1,7.9,9,heterocyclic_nitrogen,2-Methylimidazole,[HL]/[L][H],0.1,25.0,9,heterocyclic_nitrogen,9(heterocyclic_nitrogen),Unknown,heterocyclic_nitrogen(Unknown)
Cc1[nH]ccn1,8.04,9,heterocyclic_nitrogen,2-Methylimidazole,[HL]/[L][H],0.5,25.0,9,heterocyclic_nitrogen,9(heterocyclic_nitrogen),Unknown,heterocyclic_nitrogen(Unknown)
Cc1[nH]ccn1,8.13,9,heterocyclic_nitrogen,2-Methylimidazole,[HL]/[L][H],1.0,25.0,9,heterocyclic_nitrogen,9(heterocyclic_nitrogen),Unknown,heterocyclic_nitrogen(Unknown)
Cc1[nH]ccn1,7.86,9,heterocyclic_nitrogen,2-Methylimidazole,[HL]/[L][H],0.0,25.0,9,heterocyclic_nitrogen,9(heterocyclic_nitrogen),Unknown,heterocyclic_nitrogen(Unknown)
CCc1[nH]ccn1,7.87,10,heterocyclic_nitrogen,2-Ethylimidazole,[HL]/[L][H],0.1,25.0,10,heterocyclic_nitrogen,10(heterocyclic_nitrogen),Unknown,heterocyclic_nitrogen(Unknown)
CCc1[nH]ccn1,7.79,10,heterocyclic_nitrogen,2-Ethylimidazole,[HL]/[L][H],0.1,30.0,10,heterocyclic_nitrogen,10(heterocyclic_nitrogen),Unknown,heterocyclic_nitrogen(Unknown)
CCc1[nH]ccn1,7.99,10,heterocyclic_nitrogen,2-Ethylimidazole,[HL]/[L][H],0.5,25.0,10,heterocyclic_nitrogen,10(heterocyclic_nitrogen),Unknown,heterocyclic_nitrogen(Unknown)
CCc1[nH]ccn1,8.02,10,heterocyclic_nitrogen,2-Ethylimidazole,[HL]/[L][H],1.0,25.0,10,heterocyclic_nitrogen,10(heterocyclic_nitrogen),Unknown,heterocyclic_nitrogen(Unknown)
CC(C)c1[nH]ccn1,7.77,13,heterocyclic_nitrogen,2-(2-Propyl)imidazole,[HL]/[L][H],0.1,25.0,13,heterocyclic_nitrogen,13(heterocyclic_nitrogen),Unknown,heterocyclic_nitrogen(Unknown)
Cc1c[nH]cn1,7.55,9,heterocyclic_nitrogen,4-Methylimidazole,[HL]/[L][H],0.1,25.0,9,heterocyclic_nitrogen,9(heterocyclic_nitrogen),Unknown,heterocyclic_nitrogen(Unknown)
Cc1c[nH]cn1,7.8,9,heterocyclic_nitrogen,4-Methylimidazole,[HL]/[L][H],0.5,25.0,9,heterocyclic_nitrogen,9(heterocyclic_nitrogen),Unknown,heterocyclic_nitrogen(Unknown)
Cc1c[nH]cn1,7.54,9,heterocyclic_nitrogen,4-Methylimidazole,[HL]/[L][H],0.0,25.0,9,heterocyclic_nitrogen,9(heterocyclic_nitrogen),Unknown,heterocyclic_nitrogen(Unknown)
Cn1ccnc1C,8.21,1,imidazole_nitrogen,"1,2-Dimethylimidazole",[HL]/[L][H],0.5,25.0,1,imidazole_nitrogen,1(imidazole_nitrogen),Unknown,imidazole_nitrogen(Unknown)
Cc1[nH]cc(C)n1,8.4,12,ring_nitrogen,"2,4-Dimethylimidazole",[HL]/[L][H],0.1,25.0,12,ring_nitrogen,12(ring_nitrogen),Unknown,ring_nitrogen(Unknown)
Cc1[nH]cc(C)n1,8.57,12,ring_nitrogen,"2,4-Dimethylimidazole",[HL]/[L][H],1.0,25.0,12,ring_nitrogen,12(ring_nitrogen),Unknown,ring_nitrogen(Unknown)
Cc1[nH]cc(C)n1,8.37,12,ring_nitrogen,"2,4-Dimethylimidazole",[HL]/[L][H],0.0,25.0,12,ring_nitrogen,12(ring_nitrogen),Unknown,ring_nitrogen(Unknown)
CCc1[nH]cc(C)n1,8.68,13,ring_nitrogen,2-Ethyl-4-methylimidazole,[HL]/[L][H],0.5,25.0,13,ring_nitrogen,13(ring_nitrogen),Unknown,ring_nitrogen(Unknown)
CCc1[nH]cc(C)n1,8.52,13,ring_nitrogen,2-Ethyl-4-methylimidazole,[HL]/[L][H],1.0,25.0,13,ring_nitrogen,13(ring_nitrogen),Unknown,ring_nitrogen(Unknown)
Cc1[nH]cnc1C,8.19,2,amine_secondary,"4,5-Dimethylimidazole",[HL]/[L][H],0.5,25.0,2,amine_secondary,2(amine_secondary),amine_secondary,amine_secondary(9.5~11.5)
CCc1[nH]cnc1CC,8.19,3,amine_secondary,"4,5-Diethylimidazole",[HL]/[L][H],0.5,25.0,3,amine_secondary,3(amine_secondary),amine_secondary,amine_secondary(9.5~11.5)
C=Cn1ccnc1,5.9,3,imidazole_nitrogen,1-Vinylimidazole,[HL]/[L][H],0.5,25.0,3,imidazole_nitrogen,3(imidazole_nitrogen),Unknown,imidazole_nitrogen(Unknown)
Cc1nccn1C=C,7.09,2,imidazole_nitrogen,1-Vinyl-2-methylimidazole,[HL]/[L][H],1.0,25.0,2,imidazole_nitrogen,2(imidazole_nitrogen),Unknown,imidazole_nitrogen(Unknown)
CCc1nccn1C=C,6.88,3,imidazole_nitrogen,1-Vinyl-2-ethylimidazole,[HL]/[L][H],1.0,25.0,3,imidazole_nitrogen,3(imidazole_nitrogen),Unknown,imidazole_nitrogen(Unknown)
[nH]1ccnc1c2ccccc2,6.39,0,amine_secondary,2-Phenylimidazole,[HL]/[L][H],0.0,25.0,0,amine_secondary,0(amine_secondary),amine_secondary,amine_secondary(9.5~11.5)
[nH]1cnc(c1)c2ccccc2,6.0,0,amine_secondary,4-Phenylimidazole,[HL]/[L][H],0.0,25.0,0,amine_secondary,0(amine_secondary),amine_secondary,amine_secondary(9.5~11.5)
[nH]1cnc2ccccc12,5.53,0,amine_secondary,"Benzo-1,3-diazole (Benzimidazole)",[HL]/[L][H],0.1,25.0,0,amine_secondary,0(amine_secondary),amine_secondary,amine_secondary(9.5~11.5)
[nH]1cnc2ccccc12,5.74,0,amine_secondary,"Benzo-1,3-diazole (Benzimidazole)",[HL]/[L][H],0.5,25.0,0,amine_secondary,0(amine_secondary),amine_secondary,amine_secondary(9.5~11.5)
Cn1cnc2ccccc12,5.56,1,imidazole_nitrogen,1-Methylbenzimidazole,[HL]/[L][H],0.1,25.0,1,imidazole_nitrogen,1(imidazole_nitrogen),Unknown,imidazole_nitrogen(Unknown)
Cn1cnc2ccccc12,5.76,1,imidazole_nitrogen,1-Methylbenzimidazole,[HL]/[L][H],1.0,25.0,1,imidazole_nitrogen,1(imidazole_nitrogen),Unknown,imidazole_nitrogen(Unknown)
Cc1[nH]c2ccccc2n1,6.17,15,ring_nitrogen,2-Methylbenzimidazole,[HL]/[L][H],0.1,25.0,15,ring_nitrogen,15(ring_nitrogen),Unknown,ring_nitrogen(Unknown)
Cc1[nH]c2ccccc2n1,6.52,15,ring_nitrogen,2-Methylbenzimidazole,[HL]/[L][H],0.5,25.0,15,ring_nitrogen,15(ring_nitrogen),Unknown,ring_nitrogen(Unknown)
CCc1[nH]c2ccccc2n1,6.15,16,ring_nitrogen,2-Ethylbenzimidazole,[HL]/[L][H],0.1,25.0,16,ring_nitrogen,16(ring_nitrogen),Unknown,ring_nitrogen(Unknown)
Cn1c(C)nc2ccccc12,6.62,1,heterocyclic_nitrogen,"1,2-Dimethylbenzimidazole",[HL]/[L][H],1.0,25.0,1,heterocyclic_nitrogen,1(heterocyclic_nitrogen),Unknown,heterocyclic_nitrogen(Unknown)
OCc1[nH]ccn1,7.66,10,heterocyclic_nitrogen,2-(Hydroxymethyl)imidazole,[HL]/[L][H],3.0,25.0,10,heterocyclic_nitrogen,10(heterocyclic_nitrogen),Unknown,heterocyclic_nitrogen(Unknown)
OCc1c[nH]cn1,6.46,10,heterocyclic_nitrogen,4-(Hydroxymethyl)imidazole,[HL]/[L][H],0.1,25.0,10,heterocyclic_nitrogen,10(heterocyclic_nitrogen),Unknown,heterocyclic_nitrogen(Unknown)
OCc1c[nH]cn1,7.42,10,heterocyclic_nitrogen,4-(Hydroxymethyl)imidazole,[HL]/[L][H],3.0,25.0,10,heterocyclic_nitrogen,10(heterocyclic_nitrogen),Unknown,heterocyclic_nitrogen(Unknown)
OCc1c[nH]cn1,6.38,10,heterocyclic_nitrogen,4-(Hydroxymethyl)imidazole,[HL]/[L][H],0.0,25.0,10,heterocyclic_nitrogen,10(heterocyclic_nitrogen),Unknown,heterocyclic_nitrogen(Unknown)
OCCc1nccn1C=C,6.39,0,alcohol,1-Vinyl-2-(2-hydroxyethyl)imidazole,[HL]/[L][H],1.0,25.0,0,alcohol,0(alcohol),alcohol,alcohol(15.0~18.0)
OCCc1cn(C=C)cn1,6.05,13,heterocyclic_nitrogen,1-Vinyl-4-(2-hydroxyethyl)imidazole,[HL]/[L][H],1.0,25.0,13,heterocyclic_nitrogen,13(heterocyclic_nitrogen),Unknown,heterocyclic_nitrogen(Unknown)
OCc1[nH]c2ccccc2n1,5.28,16,ring_nitrogen,2-(Hydroxymethyl)benzimidazole,[HL]/[L][H],0.1,25.0,16,ring_nitrogen,16(ring_nitrogen),Unknown,ring_nitrogen(Unknown)
Cn1c(CO)nc2ccccc12,5.43,1,heterocyclic_nitrogen,1-Methyl-2-(hydroxymethyl)benzimidazole,[HL]/[L][H],0.1,25.0,1,heterocyclic_nitrogen,1(heterocyclic_nitrogen),Unknown,heterocyclic_nitrogen(Unknown)
CC[C@H]1[C@H](COC1=O)Cc2cncn2C,7.12,27,heterocyclic_nitrogen,1-Methyl-5-(2-oxo-3-ethyl-4-oxolylmethyl)imidazole (Pilocarpine),[HL]/[L][H],0.1,25.0,27,heterocyclic_nitrogen,27(heterocyclic_nitrogen),Unknown,heterocyclic_nitrogen(Unknown)
CC[C@H]1[C@H](COC1=O)Cc2cncn2C,7.36,27,heterocyclic_nitrogen,1-Methyl-5-(2-oxo-3-ethyl-4-oxolylmethyl)imidazole (Pilocarpine),[HL]/[L][H],0.5,25.0,27,heterocyclic_nitrogen,27(heterocyclic_nitrogen),Unknown,heterocyclic_nitrogen(Unknown)
CC[C@H]1[C@H](COC1=O)Cc2cncn2C,6.98,27,heterocyclic_nitrogen,1-Methyl-5-(2-oxo-3-ethyl-4-oxolylmethyl)imidazole (Pilocarpine),[HL]/[L][H],0.0,25.0,27,heterocyclic_nitrogen,27(heterocyclic_nitrogen),Unknown,heterocyclic_nitrogen(Unknown)
Sc1[nH]ccn1,11.21,9,heterocyclic_nitrogen,2-Mercaptoimidazole,[HL]/[L][H],0.1,25.0,9,heterocyclic_nitrogen,9(heterocyclic_nitrogen),Unknown,heterocyclic_nitrogen(Unknown)
Cn1ccnc1S,11.58,1,imidazole_nitrogen,N-Methyl-2-mercaptoimidazole,[HL]/[L][H],0.1,25.0,1,imidazole_nitrogen,1(imidazole_nitrogen),Unknown,imidazole_nitrogen(Unknown)
NCCc1c[nH]c(S)n1,11.62,5:7,amine_secondary:thiol,4-(2-Aminoethyl)-2-mercaptoimidazole (2-Mercaptohistamine),[HL]/[L][H],0.1,25.0,7:5,thiol:amine_secondary,7(thiol) > 5(amine_secondary),amine_secondary,amine_secondary(9.5~11.5); thiol(8.0~11.0)
NCCc1c[nH]c(S)n1,9.12,5:7,amine_secondary:thiol,4-(2-Aminoethyl)-2-mercaptoimidazole (2-Mercaptohistamine),[H₂L]/[HL][H],0.1,25.0,7:5,thiol:amine_secondary,7(thiol) > 5(amine_secondary),thiol,amine_secondary(9.5~11.5); thiol(8.0~11.0)
COC(=O)[C@H](Cc1c[nH]cn1)NC(=O)[C@@H]2CCC(=O)N2,6.34,22,heterocyclic_nitrogen,L-Pyroglutamyl-L-histidine methyl ester,[HL]/[L][H],0.1,25.0,22,heterocyclic_nitrogen,22(heterocyclic_nitrogen),Unknown,heterocyclic_nitrogen(Unknown)
NC(=O)[C@@H]1CCCN1C(=O)[C@H](Cc2c[nH]cn2)NC(=O)[C@@H]3CCC(=O)N3,6.3,38,heterocyclic_nitrogen,L-Pyroglutamyl-L-histidyl-L-proline amide,[HL]/[L][H],0.1,25.0,38,heterocyclic_nitrogen,38(heterocyclic_nitrogen),Unknown,heterocyclic_nitrogen(Unknown)
NC(=O)[C@@H]1CCCN1C(=O)[C@H](Cc2c[nH]cn2)NC(=O)[C@@H]3CCC(=O)N3,6.38,38,heterocyclic_nitrogen,L-Pyroglutamyl-L-histidyl-L-proline amide,[HL]/[L][H],0.1,22.0,38,heterocyclic_nitrogen,38(heterocyclic_nitrogen),Unknown,heterocyclic_nitrogen(Unknown)
NC(=O)[C@@H]1CCCN1C(=O)[C@@H](Cc2c[nH]cn2)NC(=O)[C@@H]3CCC(=O)N3,6.15,39,heterocyclic_nitrogen,L-Pyroglutamyl-D-histidyl-L-proline amide,[HL]/[L][H],0.1,22.0,39,heterocyclic_nitrogen,39(heterocyclic_nitrogen),Unknown,heterocyclic_nitrogen(Unknown)
CCOC(=O)CNC(=O)CNC(=O)[C@H](Cc1c[nH]cn1)NC(=O)CNC(=O)CNC(=O)OCc2ccccc2,6.08,37,heterocyclic_nitrogen,Phenylmethyloxycarbonylglycylglycyl-L-histidylglycylglycine ethyl ester,[HL]/[L][H],0.15,37.0,37,heterocyclic_nitrogen,37(heterocyclic_nitrogen),Unknown,heterocyclic_nitrogen(Unknown)
CN=C(NCCSCc1nc[nH]c1C)NC#N,6.86,25,nitrile,N-Cyano-N'-methyl-N''-[2-(5-methyl-4-imidazolylmethylthio)ethyl]guanidine (Cimetidine),[HL]/[L][H],0.1,25.0,25,nitrile,25(nitrile),Unknown,nitrile(Unknown)
CN=C(NCCSCc1nc[nH]c1C)NC#N,6.65,25,nitrile,N-Cyano-N'-methyl-N''-[2-(5-methyl-4-imidazolylmethylthio)ethyl]guanidine (Cimetidine),[HL]/[L][H],0.15,37.0,25,nitrile,25(nitrile),Unknown,nitrile(Unknown)
Nc1[nH]c2ccccc2n1,7.45,15,ring_nitrogen,2-Aminobenzimidazole,[HL]/[L][H],0.5,25.0,15,ring_nitrogen,15(ring_nitrogen),Unknown,ring_nitrogen(Unknown)
NCCc1[nH]ccn1,9.27,0:4,amine_primary:amine_secondary,2-(2-Aminoethyl)imidazole (Isohistamine),[HL]/[L][H],0.1,25.0,0:4,amine_primary:amine_secondary,0(amine_primary) > 4(amine_secondary),amine_primary,amine_primary(9.0~11.0); amine_secondary(9.5~11.5)
NCCc1[nH]ccn1,6.04,0:4,amine_primary:amine_secondary,2-(2-Aminoethyl)imidazole (Isohistamine),[H₂L]/[HL][H],0.1,25.0,0:4,amine_primary:amine_secondary,0(amine_primary) > 4(amine_secondary),amine_primary,amine_primary(9.0~11.0); amine_secondary(9.5~11.5)
NCCc1c[nH]cn1,9.81,0:5,amine_primary:amine_secondary,4-(2-Aminoethyl)imidazole (Histamine),[HL]/[L][H],0.1,25.0,0:5,amine_primary:amine_secondary,0(amine_primary) > 5(amine_secondary),amine_primary,amine_primary(9.0~11.0); amine_secondary(9.5~11.5)
NCCc1c[nH]cn1,9.44,0:5,amine_primary:amine_secondary,4-(2-Aminoethyl)imidazole (Histamine),[HL]/[L][H],0.15,37.0,0:5,amine_primary:amine_secondary,0(amine_primary) > 5(amine_secondary),amine_primary,amine_primary(9.0~11.0); amine_secondary(9.5~11.5)
NCCc1c[nH]cn1,9.91,0:5,amine_primary:amine_secondary,4-(2-Aminoethyl)imidazole (Histamine),[HL]/[L][H],0.5,25.0,0:5,amine_primary:amine_secondary,0(amine_primary) > 5(amine_secondary),amine_primary,amine_primary(9.0~11.0); amine_secondary(9.5~11.5)
NCCc1c[nH]cn1,10.02,0:5,amine_primary:amine_secondary,4-(2-Aminoethyl)imidazole (Histamine),[HL]/[L][H],1.0,25.0,0:5,amine_primary:amine_secondary,0(amine_primary) > 5(amine_secondary),amine_primary,amine_primary(9.0~11.0); amine_secondary(9.5~11.5)
NCCc1c[nH]cn1,9.8,0:5,amine_primary:amine_secondary,4-(2-Aminoethyl)imidazole (Histamine),[HL]/[L][H],0.0,25.0,0:5,amine_primary:amine_secondary,0(amine_primary) > 5(amine_secondary),amine_primary,amine_primary(9.0~11.0); amine_secondary(9.5~11.5)
NCCc1c[nH]cn1,6.11,0:5,amine_primary:amine_secondary,4-(2-Aminoethyl)imidazole (Histamine),[H₂L]/[HL][H],0.1,25.0,0:5,amine_primary:amine_secondary,0(amine_primary) > 5(amine_secondary),amine_primary,amine_primary(9.0~11.0); amine_secondary(9.5~11.5)
NCCc1c[nH]cn1,5.91,0:5,amine_primary:amine_secondary,4-(2-Aminoethyl)imidazole (Histamine),[H₂L]/[HL][H],0.15,37.0,0:5,amine_primary:amine_secondary,0(amine_primary) > 5(amine_secondary),amine_primary,amine_primary(9.0~11.0); amine_secondary(9.5~11.5)
NCCc1c[nH]cn1,6.25,0:5,amine_primary:amine_secondary,4-(2-Aminoethyl)imidazole (Histamine),[H₂L]/[HL][H],0.5,25.0,0:5,amine_primary:amine_secondary,0(amine_primary) > 5(amine_secondary),amine_primary,amine_primary(9.0~11.0); amine_secondary(9.5~11.5)
NCCc1c[nH]cn1,6.46,0:5,amine_primary:amine_secondary,4-(2-Aminoethyl)imidazole (Histamine),[H₂L]/[HL][H],1.0,25.0,0:5,amine_primary:amine_secondary,0(amine_primary) > 5(amine_secondary),amine_primary,amine_primary(9.0~11.0); amine_secondary(9.5~11.5)
NCCc1c[nH]cn1,5.95,0:5,amine_primary:amine_secondary,4-(2-Aminoethyl)imidazole (Histamine),[H₂L]/[HL][H],0.0,25.0,0:5,amine_primary:amine_secondary,0(amine_primary) > 5(amine_secondary),amine_primary,amine_primary(9.0~11.0); amine_secondary(9.5~11.5)
CNCCc1c[nH]cn1,9.9,1:6,amine_secondary:amine_secondary,4-(2-Methylaminoethyl)imidazole,[HL]/[L][H],0.1,25.0,1:6,amine_secondary:amine_secondary,1(amine_secondary) > 6(amine_secondary),amine_secondary,amine_secondary(9.5~11.5); amine_secondary(9.5~11.5)
CNCCc1c[nH]cn1,5.87,1:6,amine_secondary:amine_secondary,4-(2-Methylaminoethyl)imidazole,[H₂L]/[HL][H],0.1,25.0,1:6,amine_secondary:amine_secondary,1(amine_secondary) > 6(amine_secondary),amine_secondary,amine_secondary(9.5~11.5); amine_secondary(9.5~11.5)
CN(C)CCc1c[nH]cn1,9.33,15,heterocyclic_nitrogen,4-(2-Dimethylaminoethyl)imidazole,[HL]/[L][H],0.1,25.0,15,heterocyclic_nitrogen,15(heterocyclic_nitrogen),Unknown,heterocyclic_nitrogen(Unknown)
CN(C)CCc1c[nH]cn1,5.82,15,heterocyclic_nitrogen,4-(2-Dimethylaminoethyl)imidazole,[H₂L]/[HL][H],0.1,25.0,15,heterocyclic_nitrogen,15(heterocyclic_nitrogen),Unknown,heterocyclic_nitrogen(Unknown)
N[C@H](CO)Cc1c[nH]cn1,8.84,0:7,amine_primary:amine_secondary,L-4-(2-Amino-3-hydroxypropyl)imidazole (Histidinol),[HL]/[L][H],0.1,25.0,0:7,amine_primary:amine_secondary,0(amine_primary) > 7(amine_secondary),amine_primary,amine_primary(9.0~11.0); amine_secondary(9.5~11.5)
N[C@H](CO)Cc1c[nH]cn1,5.85,0:7,amine_primary:amine_secondary,L-4-(2-Amino-3-hydroxypropyl)imidazole (Histidinol),[H₂L]/[HL][H],0.1,25.0,0:7,amine_primary:amine_secondary,0(amine_primary) > 7(amine_secondary),amine_primary,amine_primary(9.0~11.0); amine_secondary(9.5~11.5)
COC(=O)[C@@H](N)Cc1c[nH]cn1,7.22,5:9,amine_primary:amine_secondary,L-Histidine methyl ester,[HL]/[L][H],0.1,25.0,5:9,amine_primary:amine_secondary,5(amine_primary) > 9(amine_secondary),amine_primary,amine_primary(9.0~11.0); amine_secondary(9.5~11.5)
COC(=O)[C@@H](N)Cc1c[nH]cn1,6.96,5:9,amine_primary:amine_secondary,L-Histidine methyl ester,[HL]/[L][H],0.15,37.0,5:9,amine_primary:amine_secondary,5(amine_primary) > 9(amine_secondary),amine_primary,amine_primary(9.0~11.0); amine_secondary(9.5~11.5)
COC(=O)[C@@H](N)Cc1c[nH]cn1,5.27,5:9,amine_primary:amine_secondary,L-Histidine methyl ester,[H₂L]/[HL][H],0.1,25.0,5:9,amine_primary:amine_secondary,5(amine_primary) > 9(amine_secondary),amine_primary,amine_primary(9.0~11.0); amine_secondary(9.5~11.5)
COC(=O)[C@@H](N)Cc1c[nH]cn1,5.06,5:9,amine_primary:amine_secondary,L-Histidine methyl ester,[H₂L]/[HL][H],0.15,37.0,5:9,amine_primary:amine_secondary,5(amine_primary) > 9(amine_secondary),amine_primary,amine_primary(9.0~11.0); amine_secondary(9.5~11.5)
COC(=O)C(O)Cc1c[nH]cn1,6.73,20,heterocyclic_nitrogen,2-Hydroxy-3-(4-imidazolyl)propanoic acid methyl ester,[HL]/[L][H],0.1,25.0,20,heterocyclic_nitrogen,20(heterocyclic_nitrogen),Unknown,heterocyclic_nitrogen(Unknown)
N[C@@H](Cc1c[nH]cn1)C(N)=O,7.63,0:9,amine_primary:amine_primary,L-Histidinamide,[HL]/[L][H],0.1,25.0,0:9,amine_primary:amine_primary,0(amine_primary) > 9(amine_primary),amine_primary,amine_primary(9.0~11.0); amine_primary(9.0~11.0)
N[C@@H](Cc1c[nH]cn1)C(N)=O,5.7,0:9,amine_primary:amine_primary,L-Histidinamide,[H₂L]/[HL][H],0.1,25.0,0:9,amine_primary:amine_primary,0(amine_primary) > 9(amine_primary),amine_primary,amine_primary(9.0~11.0); amine_primary(9.0~11.0)
CC(=O)NCCc1c[nH]cn1,7.12,17,heterocyclic_nitrogen,N-Acetylhistamine,[HL]/[L][H],0.1,25.0,17,heterocyclic_nitrogen,17(heterocyclic_nitrogen),Unknown,heterocyclic_nitrogen(Unknown)
NCC(=O)NCCc1c[nH]cn1,8.04,0:4,amine_primary:amine_secondary,Glycylhistamine,[HL]/[L][H],0.1,25.0,0:4,amine_primary:amine_secondary,0(amine_primary) > 4(amine_secondary),amine_primary,amine_primary(9.0~11.0); amine_secondary(9.5~11.5)
NCC(=O)NCCc1c[nH]cn1,6.78,0:4,amine_primary:amine_secondary,Glycylhistamine,[H₂L]/[HL][H],0.1,25.0,0:4,amine_primary:amine_secondary,0(amine_primary) > 4(amine_secondary),amine_primary,amine_primary(9.0~11.0); amine_secondary(9.5~11.5)
COC(=O)[C@H](Cc1c[nH]cn1)NC(=O)CNC(=O)CN,7.47,19:8,amine_primary:amine_secondary,Glycylglycyl-L-histidine methyl ester,[HL]/[L][H],0.15,37.0,19:8,amine_primary:amine_secondary,19(amine_primary) > 8(amine_secondary),amine_primary,amine_primary(9.0~11.0); amine_secondary(9.5~11.5)
COC(=O)[C@H](Cc1c[nH]cn1)NC(=O)CNC(=O)CN,6.12,19:8,amine_primary:amine_secondary,Glycylglycyl-L-histidine methyl ester,[H₂L]/[HL][H],0.15,37.0,19:8,amine_primary:amine_secondary,19(amine_primary) > 8(amine_secondary),amine_primary,amine_primary(9.0~11.0); amine_secondary(9.5~11.5)
CNC(=O)[C@H](Cc1c[nH]cn1)NC(=O)CNC(=O)CN,7.87,19:1,amine_primary:amine_secondary,Glycylglycyl-L-histidine methyl amide,[HL]/[L][H],0.1,25.0,19:1,amine_primary:amine_secondary,19(amine_primary) > 1(amine_secondary),amine_primary,amine_primary(9.0~11.0); amine_secondary(9.5~11.5)
CNC(=O)[C@H](Cc1c[nH]cn1)NC(=O)CNC(=O)CN,6.33,19:1,amine_primary:amine_secondary,Glycylglycyl-L-histidine methyl amide,[H₂L]/[HL][H],0.1,25.0,19:1,amine_primary:amine_secondary,19(amine_primary) > 1(amine_secondary),amine_primary,amine_primary(9.0~11.0); amine_secondary(9.5~11.5)
CCOC(=O)CNC(=O)CNC(=O)[C@H](Cc1c[nH]cn1)NC(=O)CNC(=O)CN,7.36,28:6,amine_primary:amine_secondary,Glycylglycyl-L-histidylglycylglycine ethyl ester,[HL]/[L][H],0.15,37.0,28:6,amine_primary:amine_secondary,28(amine_primary) > 6(amine_secondary),amine_primary,amine_primary(9.0~11.0); amine_secondary(9.5~11.5)