SMILES,pKa,Dissociable_Atoms,Functional_Group,Name,Equilibrium,Ionic,Temperature,Dissociable_Atoms_Ordered,Functional_Group_Ordered,Dissociation_Order,Dissociating_Group,Functional_Group_pKa_Ranges
CSCC[C@H](N)C(=O)NCC(O)=O,7.59,11:5,carboxylic_acid:amine_primary,L-Methionylglycine,[HL]/[L][H],0.1,25.0,11:5,carboxylic_acid:amine_primary,11(carboxylic_acid) > 5(amine_primary),amine_primary,carboxylic_acid(1.5~5.0); amine_primary(9.0~11.0)
CSCC[C@H](N)C(=O)NCC(O)=O,3.16,11:5,carboxylic_acid:amine_primary,L-Methionylglycine,[H₂L]/[HL][H],0.1,25.0,11:5,carboxylic_acid:amine_primary,11(carboxylic_acid) > 5(amine_primary),carboxylic_acid,carboxylic_acid(1.5~5.0); amine_primary(9.0~11.0)
NCCCC[C@H](N)C(=O)NCC(O)=O,10.61,12:0,carboxylic_acid:amine_primary,L-Lysylglycine,[HL]/[L][H],0.1,25.0,12:0,carboxylic_acid:amine_primary,12(carboxylic_acid) > 0(amine_primary),amine_primary,carboxylic_acid(1.5~5.0); amine_primary(9.0~11.0)
NCCCC[C@H](N)C(=O)NCC(O)=O,7.64,12:0,carboxylic_acid:amine_primary,L-Lysylglycine,[H₂L]/[HL][H],0.1,25.0,12:0,carboxylic_acid:amine_primary,12(carboxylic_acid) > 0(amine_primary),amine_primary,carboxylic_acid(1.5~5.0); amine_primary(9.0~11.0)
N[C@@H](Cc1c[nH]cn1)C(=O)NCC(O)=O,7.6,13:0:5,carboxylic_acid:amine_primary:amine_secondary,L-Histidylglycine,[HL]/[L][H],0.1,25.0,13:0:5,carboxylic_acid:amine_primary:amine_secondary,13(carboxylic_acid) > 0(amine_primary) > 5(amine_secondary),amine_primary,carboxylic_acid(1.5~5.0); amine_primary(9.0~11.0); amine_secondary(9.5~11.5)
N[C@@H](Cc1c[nH]cn1)C(=O)NCC(O)=O,5.88,13:0:5,carboxylic_acid:amine_primary:amine_secondary,L-Histidylglycine,[H₂L]/[HL][H],0.1,25.0,13:0:5,carboxylic_acid:amine_primary:amine_secondary,13(carboxylic_acid) > 0(amine_primary) > 5(amine_secondary),carboxylic_acid,carboxylic_acid(1.5~5.0); amine_primary(9.0~11.0); amine_secondary(9.5~11.5)
N[C@@H](Cc1c[nH]cn1)C(=O)NCC(O)=O,2.72,13:0:5,carboxylic_acid:amine_primary:amine_secondary,L-Histidylglycine,[H₃L]/[H₂L][H],0.1,25.0,13:0:5,carboxylic_acid:amine_primary:amine_secondary,13(carboxylic_acid) > 0(amine_primary) > 5(amine_secondary),carboxylic_acid,carboxylic_acid(1.5~5.0); amine_primary(9.0~11.0); amine_secondary(9.5~11.5)
NCCC(=O)NCCC(O)=O,9.36,9:0,carboxylic_acid:amine_primary,beta-Alanyl-beta-alanine,[HL]/[L][H],0.1,25.0,9:0,carboxylic_acid:amine_primary,9(carboxylic_acid) > 0(amine_primary),amine_primary,carboxylic_acid(1.5~5.0); amine_primary(9.0~11.0)
NCCC(=O)NCCC(O)=O,3.95,9:0,carboxylic_acid:amine_primary,beta-Alanyl-beta-alanine,[H₂L]/[HL][H],0.1,25.0,9:0,carboxylic_acid:amine_primary,9(carboxylic_acid) > 0(amine_primary),carboxylic_acid,carboxylic_acid(1.5~5.0); amine_primary(9.0~11.0)
NCCC(=O)NC(Cc1[nH]cnc1)C(O)=O,9.35,14:0:5,carboxylic_acid:amine_primary:amine_secondary,beta-Alanyl-L-histidine (L-Carnosine),[HL]/[L][H],0.1,25.0,14:0:5,carboxylic_acid:amine_primary:amine_secondary,14(carboxylic_acid) > 0(amine_primary) > 5(amine_secondary),amine_primary,carboxylic_acid(1.5~5.0); amine_primary(9.0~11.0); amine_secondary(9.5~11.5)
NCCC(=O)NC(Cc1[nH]cnc1)C(O)=O,9.04,14:0:5,carboxylic_acid:amine_primary:amine_secondary,beta-Alanyl-L-histidine (L-Carnosine),[HL]/[L][H],0.15,37.0,14:0:5,carboxylic_acid:amine_primary:amine_secondary,14(carboxylic_acid) > 0(amine_primary) > 5(amine_secondary),amine_primary,carboxylic_acid(1.5~5.0); amine_primary(9.0~11.0); amine_secondary(9.5~11.5)
NCCC(=O)NC(Cc1[nH]cnc1)C(O)=O,6.79,14:0:5,carboxylic_acid:amine_primary:amine_secondary,beta-Alanyl-L-histidine (L-Carnosine),[H₂L]/[HL][H],0.1,25.0,14:0:5,carboxylic_acid:amine_primary:amine_secondary,14(carboxylic_acid) > 0(amine_primary) > 5(amine_secondary),amine_primary,carboxylic_acid(1.5~5.0); amine_primary(9.0~11.0); amine_secondary(9.5~11.5)
NCCC(=O)NC(Cc1[nH]cnc1)C(O)=O,6.59,14:0:5,carboxylic_acid:amine_primary:amine_secondary,beta-Alanyl-L-histidine (L-Carnosine),[H₂L]/[HL][H],0.15,37.0,14:0:5,carboxylic_acid:amine_primary:amine_secondary,14(carboxylic_acid) > 0(amine_primary) > 5(amine_secondary),carboxylic_acid,carboxylic_acid(1.5~5.0); amine_primary(9.0~11.0); amine_secondary(9.5~11.5)
NCCC(=O)NC(Cc1[nH]cnc1)C(O)=O,2.54,14:0:5,carboxylic_acid:amine_primary:amine_secondary,beta-Alanyl-L-histidine (L-Carnosine),[H₃L]/[H₂L][H],0.1,25.0,14:0:5,carboxylic_acid:amine_primary:amine_secondary,14(carboxylic_acid) > 0(amine_primary) > 5(amine_secondary),carboxylic_acid,carboxylic_acid(1.5~5.0); amine_primary(9.0~11.0); amine_secondary(9.5~11.5)
NCCC(=O)NC(Cc1[nH]cnc1)C(O)=O,2.63,14:0:5,carboxylic_acid:amine_primary:amine_secondary,beta-Alanyl-L-histidine (L-Carnosine),[H₃L]/[H₂L][H],0.15,37.0,14:0:5,carboxylic_acid:amine_primary:amine_secondary,14(carboxylic_acid) > 0(amine_primary) > 5(amine_secondary),carboxylic_acid,carboxylic_acid(1.5~5.0); amine_primary(9.0~11.0); amine_secondary(9.5~11.5)
Cn1cncc1CC(NC(=O)CCN)C(O)=O,9.33,15:13,carboxylic_acid:amine_primary,beta-Alanyl-L-1-methylhistidine (L-Anserine),[HL]/[L][H],0.1,25.0,15:13,carboxylic_acid:amine_primary,15(carboxylic_acid) > 13(amine_primary),amine_primary,carboxylic_acid(1.5~5.0); amine_primary(9.0~11.0)
Cn1cncc1CC(NC(=O)CCN)C(O)=O,7.03,15:13,carboxylic_acid:amine_primary,beta-Alanyl-L-1-methylhistidine (L-Anserine),[H₂L]/[HL][H],0.1,25.0,15:13,carboxylic_acid:amine_primary,15(carboxylic_acid) > 13(amine_primary),amine_primary,carboxylic_acid(1.5~5.0); amine_primary(9.0~11.0)
C[C@H](N)C(=O)N[C@@H](C)C(O)=O,8.15,9:2,carboxylic_acid:amine_primary,L-Alanyl-L-alanine,[HL]/[L][H],0.1,25.0,9:2,carboxylic_acid:amine_primary,9(carboxylic_acid) > 2(amine_primary),amine_primary,carboxylic_acid(1.5~5.0); amine_primary(9.0~11.0)
C[C@H](N)C(=O)N[C@@H](C)C(O)=O,3.27,9:2,carboxylic_acid:amine_primary,L-Alanyl-L-alanine,[H₂L]/[HL][H],0.1,25.0,9:2,carboxylic_acid:amine_primary,9(carboxylic_acid) > 2(amine_primary),carboxylic_acid,carboxylic_acid(1.5~5.0); amine_primary(9.0~11.0)
C[C@H](N)C(=O)N[C@H](C)C(O)=O,8.29,9:2,carboxylic_acid:amine_primary,L-Alanyl-D-alanine,[HL]/[L][H],0.1,25.0,9:2,carboxylic_acid:amine_primary,9(carboxylic_acid) > 2(amine_primary),amine_primary,carboxylic_acid(1.5~5.0); amine_primary(9.0~11.0)
C[C@H](N)C(=O)N[C@H](C)C(O)=O,3.13,9:2,carboxylic_acid:amine_primary,L-Alanyl-D-alanine,[H₂L]/[HL][H],0.1,25.0,9:2,carboxylic_acid:amine_primary,9(carboxylic_acid) > 2(amine_primary),carboxylic_acid,carboxylic_acid(1.5~5.0); amine_primary(9.0~11.0)
C[C@H](N)C(=O)NC(C)(C)C(O)=O,8.22,10:2,carboxylic_acid:amine_primary,L-Alanyl-2-methylalanine,[HL]/[L][H],0.1,25.0,10:2,carboxylic_acid:amine_primary,10(carboxylic_acid) > 2(amine_primary),amine_primary,carboxylic_acid(1.5~5.0); amine_primary(9.0~11.0)
C[C@H](N)C(=O)NC(C)(C)C(O)=O,3.49,10:2,carboxylic_acid:amine_primary,L-Alanyl-2-methylalanine,[H₂L]/[HL][H],0.1,25.0,10:2,carboxylic_acid:amine_primary,10(carboxylic_acid) > 2(amine_primary),carboxylic_acid,carboxylic_acid(1.5~5.0); amine_primary(9.0~11.0)
CC(C)C[C@H](NC(=O)[C@H](C)N)C(O)=O,8.03,12:10,carboxylic_acid:amine_primary,L-Alanyl-L-leucine,[HL]/[L][H],0.1,25.0,12:10,carboxylic_acid:amine_primary,12(carboxylic_acid) > 10(amine_primary),amine_primary,carboxylic_acid(1.5~5.0); amine_primary(9.0~11.0)
CC(C)C[C@H](NC(=O)[C@H](C)N)C(O)=O,3.34,12:10,carboxylic_acid:amine_primary,L-Alanyl-L-leucine,[H₂L]/[HL][H],0.1,25.0,12:10,carboxylic_acid:amine_primary,12(carboxylic_acid) > 10(amine_primary),carboxylic_acid,carboxylic_acid(1.5~5.0); amine_primary(9.0~11.0)
CC(C)C[C@H](NC(=O)[C@@H](C)N)C(O)=O,8.23,12:10,carboxylic_acid:amine_primary,D-Alanyl-L-leucine,[HL]/[L][H],0.1,25.0,12:10,carboxylic_acid:amine_primary,12(carboxylic_acid) > 10(amine_primary),amine_primary,carboxylic_acid(1.5~5.0); amine_primary(9.0~11.0)
CC(C)C[C@H](NC(=O)[C@@H](C)N)C(O)=O,3.14,12:10,carboxylic_acid:amine_primary,D-Alanyl-L-leucine,[H₂L]/[HL][H],0.1,25.0,12:10,carboxylic_acid:amine_primary,12(carboxylic_acid) > 10(amine_primary),carboxylic_acid,carboxylic_acid(1.5~5.0); amine_primary(9.0~11.0)
C[C@H](N)C(=O)N[C@@H](Cc1ccccc1)C(O)=O,7.9,15:2,carboxylic_acid:amine_primary,L-Alanyl-L-phenylalanine,[HL]/[L][H],0.1,25.0,15:2,carboxylic_acid:amine_primary,15(carboxylic_acid) > 2(amine_primary),amine_primary,carboxylic_acid(1.5~5.0); amine_primary(9.0~11.0)
C[C@H](N)C(=O)N[C@@H](Cc1ccccc1)C(O)=O,3.2,15:2,carboxylic_acid:amine_primary,L-Alanyl-L-phenylalanine,[H₂L]/[HL][H],0.1,25.0,15:2,carboxylic_acid:amine_primary,15(carboxylic_acid) > 2(amine_primary),carboxylic_acid,carboxylic_acid(1.5~5.0); amine_primary(9.0~11.0)
C[C@H](N)C(=O)N[C@H](Cc1ccccc1)C(O)=O,8.13,15:2,carboxylic_acid:amine_primary,L-Alanyl-D-phenylalanine,[HL]/[L][H],0.1,25.0,15:2,carboxylic_acid:amine_primary,15(carboxylic_acid) > 2(amine_primary),amine_primary,carboxylic_acid(1.5~5.0); amine_primary(9.0~11.0)
C[C@H](N)C(=O)N[C@H](Cc1ccccc1)C(O)=O,2.99,15:2,carboxylic_acid:amine_primary,L-Alanyl-D-phenylalanine,[H₂L]/[HL][H],0.1,25.0,15:2,carboxylic_acid:amine_primary,15(carboxylic_acid) > 2(amine_primary),carboxylic_acid,carboxylic_acid(1.5~5.0); amine_primary(9.0~11.0)
C[C@H](N)C(=O)N1CCC[C@H]1C(O)=O,8.4,2:11,amine_primary:carboxylic_acid,L-Alanyl-L-proline,[HL]/[L][H],0.1,20.0,11:2,carboxylic_acid:amine_primary,11(carboxylic_acid) > 2(amine_primary),amine_primary,amine_primary(9.0~11.0); carboxylic_acid(1.5~5.0)
C[C@H](N)C(=O)N1CCC[C@H]1C(O)=O,2.9,2:11,amine_primary:carboxylic_acid,L-Alanyl-L-proline,[H₂L]/[HL][H],0.1,20.0,11:2,carboxylic_acid:amine_primary,11(carboxylic_acid) > 2(amine_primary),carboxylic_acid,amine_primary(9.0~11.0); carboxylic_acid(1.5~5.0)
C[C@H](N)C(=O)N[C@@H](CCCNC(N)=N)C(O)=O,7.95,15:2,carboxylic_acid:amine_primary,L-Alanyl-L-arginine,[HL]/[L][H],0.1,25.0,15:2,carboxylic_acid:amine_primary,15(carboxylic_acid) > 2(amine_primary),amine_primary,carboxylic_acid(1.5~5.0); amine_primary(9.0~11.0)
C[C@H](N)C(=O)N[C@@H](CCCNC(N)=N)C(O)=O,2.99,15:2,carboxylic_acid:amine_primary,L-Alanyl-L-arginine,[H₂L]/[HL][H],0.1,25.0,15:2,carboxylic_acid:amine_primary,15(carboxylic_acid) > 2(amine_primary),carboxylic_acid,carboxylic_acid(1.5~5.0); amine_primary(9.0~11.0)
C[C@H](N)C(=O)N[C@@H](CS)C(O)=O,9.52,10:2:5,carboxylic_acid:amine_primary:amine_secondary,L-Alanyl-L-cysteine,[HL]/[L][H],0.1,25.0,10:2:5,carboxylic_acid:amine_primary:amine_secondary,10(carboxylic_acid) > 2(amine_primary) > 5(amine_secondary),amine_primary,carboxylic_acid(1.5~5.0); amine_primary(9.0~11.0); amine_secondary(9.5~11.5)
C[C@H](N)C(=O)N[C@@H](CS)C(O)=O,7.98,10:2:5,carboxylic_acid:amine_primary:amine_secondary,L-Alanyl-L-cysteine,[H₂L]/[HL][H],0.1,25.0,10:2:5,carboxylic_acid:amine_primary:amine_secondary,10(carboxylic_acid) > 2(amine_primary) > 5(amine_secondary),amine_primary,carboxylic_acid(1.5~5.0); amine_primary(9.0~11.0); amine_secondary(9.5~11.5)
C[C@H](N)C(=O)N[C@@H](CS)C(O)=O,2.89,10:2:5,carboxylic_acid:amine_primary:amine_secondary,L-Alanyl-L-cysteine,[H₃L]/[H₂L][H],0.1,25.0,10:2:5,carboxylic_acid:amine_primary:amine_secondary,10(carboxylic_acid) > 2(amine_primary) > 5(amine_secondary),carboxylic_acid,carboxylic_acid(1.5~5.0); amine_primary(9.0~11.0); amine_secondary(9.5~11.5)
C[C@H](N)C(=O)N[C@@H](Cc1c[nH]cn1)C(O)=O,8.06,14:2:5,carboxylic_acid:amine_primary:amine_secondary,L-Alanyl-L-histidine,[HL]/[L][H],0.1,25.0,14:2:5,carboxylic_acid:amine_primary:amine_secondary,14(carboxylic_acid) > 2(amine_primary) > 5(amine_secondary),amine_primary,carboxylic_acid(1.5~5.0); amine_primary(9.0~11.0); amine_secondary(9.5~11.5)
C[C@H](N)C(=O)N[C@@H](Cc1c[nH]cn1)C(O)=O,7.79,14:2:5,carboxylic_acid:amine_primary:amine_secondary,L-Alanyl-L-histidine,[HL]/[L][H],0.1,37.0,14:2:5,carboxylic_acid:amine_primary:amine_secondary,14(carboxylic_acid) > 2(amine_primary) > 5(amine_secondary),amine_primary,carboxylic_acid(1.5~5.0); amine_primary(9.0~11.0); amine_secondary(9.5~11.5)
C[C@H](N)C(=O)N[C@@H](Cc1c[nH]cn1)C(O)=O,8.86,14:2:5,carboxylic_acid:amine_primary:amine_secondary,L-Alanyl-L-histidine,[HL]/[L][H],0.5,25.0,14:2:5,carboxylic_acid:amine_primary:amine_secondary,14(carboxylic_acid) > 2(amine_primary) > 5(amine_secondary),amine_primary,carboxylic_acid(1.5~5.0); amine_primary(9.0~11.0); amine_secondary(9.5~11.5)
C[C@H](N)C(=O)N[C@@H](Cc1c[nH]cn1)C(O)=O,6.74,14:2:5,carboxylic_acid:amine_primary:amine_secondary,L-Alanyl-L-histidine,[H₂L]/[HL][H],0.1,25.0,14:2:5,carboxylic_acid:amine_primary:amine_secondary,14(carboxylic_acid) > 2(amine_primary) > 5(amine_secondary),amine_primary,carboxylic_acid(1.5~5.0); amine_primary(9.0~11.0); amine_secondary(9.5~11.5)
C[C@H](N)C(=O)N[C@@H](Cc1c[nH]cn1)C(O)=O,6.5,14:2:5,carboxylic_acid:amine_primary:amine_secondary,L-Alanyl-L-histidine,[H₂L]/[HL][H],0.1,37.0,14:2:5,carboxylic_acid:amine_primary:amine_secondary,14(carboxylic_acid) > 2(amine_primary) > 5(amine_secondary),carboxylic_acid,carboxylic_acid(1.5~5.0); amine_primary(9.0~11.0); amine_secondary(9.5~11.5)
C[C@H](N)C(=O)N[C@@H](Cc1c[nH]cn1)C(O)=O,6.85,14:2:5,carboxylic_acid:amine_primary:amine_secondary,L-Alanyl-L-histidine,[H₂L]/[HL][H],0.5,25.0,14:2:5,carboxylic_acid:amine_primary:amine_secondary,14(carboxylic_acid) > 2(amine_primary) > 5(amine_secondary),amine_primary,carboxylic_acid(1.5~5.0); amine_primary(9.0~11.0); amine_secondary(9.5~11.5)
C[C@H](N)C(=O)N[C@@H](Cc1c[nH]cn1)C(O)=O,2.68,14:2:5,carboxylic_acid:amine_primary:amine_secondary,L-Alanyl-L-histidine,[H₃L]/[H₂L][H],0.1,25.0,14:2:5,carboxylic_acid:amine_primary:amine_secondary,14(carboxylic_acid) > 2(amine_primary) > 5(amine_secondary),carboxylic_acid,carboxylic_acid(1.5~5.0); amine_primary(9.0~11.0); amine_secondary(9.5~11.5)
C[C@H](N)C(=O)N[C@@H](Cc1c[nH]cn1)C(O)=O,2.5,14:2:5,carboxylic_acid:amine_primary:amine_secondary,L-Alanyl-L-histidine,[H₃L]/[H₂L][H],0.1,37.0,14:2:5,carboxylic_acid:amine_primary:amine_secondary,14(carboxylic_acid) > 2(amine_primary) > 5(amine_secondary),carboxylic_acid,carboxylic_acid(1.5~5.0); amine_primary(9.0~11.0); amine_secondary(9.5~11.5)
C[C@H](N)C(=O)N[C@@H](Cc1c[nH]cn1)C(O)=O,2.76,14:2:5,carboxylic_acid:amine_primary:amine_secondary,L-Alanyl-L-histidine,[H₃L]/[H₂L][H],0.5,25.0,14:2:5,carboxylic_acid:amine_primary:amine_secondary,14(carboxylic_acid) > 2(amine_primary) > 5(amine_secondary),carboxylic_acid,carboxylic_acid(1.5~5.0); amine_primary(9.0~11.0); amine_secondary(9.5~11.5)
CC(C)[C@H](N)C(=O)N[C@@H](C)C(O)=O,7.92,11:4,carboxylic_acid:amine_primary,L-Valyl-L-alanine,[HL]/[L][H],0.1,25.0,11:4,carboxylic_acid:amine_primary,11(carboxylic_acid) > 4(amine_primary),amine_primary,carboxylic_acid(1.5~5.0); amine_primary(9.0~11.0)
CC(C)[C@H](N)C(=O)N[C@@H](C)C(O)=O,3.32,11:4,carboxylic_acid:amine_primary,L-Valyl-L-alanine,[H₂L]/[HL][H],0.1,25.0,11:4,carboxylic_acid:amine_primary,11(carboxylic_acid) > 4(amine_primary),carboxylic_acid,carboxylic_acid(1.5~5.0); amine_primary(9.0~11.0)
CC(C)C[C@H](N)C(=O)N[C@@H](C)C(O)=O,8.08,12:5,carboxylic_acid:amine_primary,L-Leucyl-L-alanine,[HL]/[L][H],0.1,25.0,12:5,carboxylic_acid:amine_primary,12(carboxylic_acid) > 5(amine_primary),amine_primary,carboxylic_acid(1.5~5.0); amine_primary(9.0~11.0)
CC(C)C[C@H](N)C(=O)N[C@@H](C)C(O)=O,3.36,12:5,carboxylic_acid:amine_primary,L-Leucyl-L-alanine,[H₂L]/[HL][H],0.1,25.0,12:5,carboxylic_acid:amine_primary,12(carboxylic_acid) > 5(amine_primary),carboxylic_acid,carboxylic_acid(1.5~5.0); amine_primary(9.0~11.0)
CC(C)C[C@H](N)C(=O)N[C@H](C)C(O)=O,8.17,12:5,carboxylic_acid:amine_primary,L-Leucyl-D-alanine,[HL]/[L][H],0.1,25.0,12:5,carboxylic_acid:amine_primary,12(carboxylic_acid) > 5(amine_primary),amine_primary,carboxylic_acid(1.5~5.0); amine_primary(9.0~11.0)
CC(C)C[C@H](N)C(=O)N[C@H](C)C(O)=O,2.98,12:5,carboxylic_acid:amine_primary,L-Leucyl-D-alanine,[H₂L]/[HL][H],0.1,25.0,12:5,carboxylic_acid:amine_primary,12(carboxylic_acid) > 5(amine_primary),carboxylic_acid,carboxylic_acid(1.5~5.0); amine_primary(9.0~11.0)
C[C@H](NC(=O)[C@@H](N)CC(O)=O)C(O)=O,7.99,9:12:6,carboxylic_acid:carboxylic_acid:amine_primary,L-Aspartyl-L-alanine,[HL]/[L][H],0.1,25.0,9:12:6,carboxylic_acid:carboxylic_acid:amine_primary,9(carboxylic_acid) > 12(carboxylic_acid) > 6(amine_primary),amine_primary,carboxylic_acid(1.5~5.0); carboxylic_acid(1.5~5.0); amine_primary(9.0~11.0)
C[C@H](NC(=O)[C@@H](N)CC(O)=O)C(O)=O,3.61,9:12:6,carboxylic_acid:carboxylic_acid:amine_primary,L-Aspartyl-L-alanine,[H₂L]/[HL][H],0.1,25.0,9:12:6,carboxylic_acid:carboxylic_acid:amine_primary,9(carboxylic_acid) > 12(carboxylic_acid) > 6(amine_primary),carboxylic_acid,carboxylic_acid(1.5~5.0); carboxylic_acid(1.5~5.0); amine_primary(9.0~11.0)
C[C@H](NC(=O)[C@@H](N)CC(O)=O)C(O)=O,2.73,9:12:6,carboxylic_acid:carboxylic_acid:amine_primary,L-Aspartyl-L-alanine,[H₃L]/[H₂L][H],0.1,25.0,9:12:6,carboxylic_acid:carboxylic_acid:amine_primary,9(carboxylic_acid) > 12(carboxylic_acid) > 6(amine_primary),carboxylic_acid,carboxylic_acid(1.5~5.0); carboxylic_acid(1.5~5.0); amine_primary(9.0~11.0)
C[C@H](NC(=O)[C@@H](N)CCC(O)=O)C(O)=O,7.98,10:13:6,carboxylic_acid:carboxylic_acid:amine_primary,L-Glutamyl-L-alanine,[HL]/[L][H],0.1,25.0,10:13:6,carboxylic_acid:carboxylic_acid:amine_primary,10(carboxylic_acid) > 13(carboxylic_acid) > 6(amine_primary),amine_primary,carboxylic_acid(1.5~5.0); carboxylic_acid(1.5~5.0); amine_primary(9.0~11.0)
C[C@H](NC(=O)[C@@H](N)CCC(O)=O)C(O)=O,4.16,10:13:6,carboxylic_acid:carboxylic_acid:amine_primary,L-Glutamyl-L-alanine,[H₂L]/[HL][H],0.1,25.0,10:13:6,carboxylic_acid:carboxylic_acid:amine_primary,10(carboxylic_acid) > 13(carboxylic_acid) > 6(amine_primary),carboxylic_acid,carboxylic_acid(1.5~5.0); carboxylic_acid(1.5~5.0); amine_primary(9.0~11.0)
C[C@H](NC(=O)[C@@H](N)CCC(O)=O)C(O)=O,1.2,10:13:6,carboxylic_acid:carboxylic_acid:amine_primary,L-Glutamyl-L-alanine,[H₃L]/[H₂L][H],0.1,25.0,10:13:6,carboxylic_acid:carboxylic_acid:amine_primary,10(carboxylic_acid) > 13(carboxylic_acid) > 6(amine_primary),carboxylic_acid,carboxylic_acid(1.5~5.0); carboxylic_acid(1.5~5.0); amine_primary(9.0~11.0)
C[C@H](NC(=O)[C@@H](N)Cc1ccc(O)cc1)C(O)=O,9.98,16:6:2,carboxylic_acid:amine_primary:amine_secondary,L-Tyrosyl-L-alanine,[HL]/[L][H],0.1,25.0,16:6:2,carboxylic_acid:amine_primary:amine_secondary,16(carboxylic_acid) > 6(amine_primary) > 2(amine_secondary),amine_primary,carboxylic_acid(1.5~5.0); amine_primary(9.0~11.0); amine_secondary(9.5~11.5)
C[C@H](NC(=O)[C@@H](N)Cc1ccc(O)cc1)C(O)=O,7.51,16:6:2,carboxylic_acid:amine_primary:amine_secondary,L-Tyrosyl-L-alanine,[H₂L]/[HL][H],0.1,25.0,16:6:2,carboxylic_acid:amine_primary:amine_secondary,16(carboxylic_acid) > 6(amine_primary) > 2(amine_secondary),amine_primary,carboxylic_acid(1.5~5.0); amine_primary(9.0~11.0); amine_secondary(9.5~11.5)
C[C@H](NC(=O)[C@@H](N)Cc1ccc(O)cc1)C(O)=O,3.38,16:6:2,carboxylic_acid:amine_primary:amine_secondary,L-Tyrosyl-L-alanine,[H₃L]/[H₂L][H],0.1,25.0,16:6:2,carboxylic_acid:amine_primary:amine_secondary,16(carboxylic_acid) > 6(amine_primary) > 2(amine_secondary),carboxylic_acid,carboxylic_acid(1.5~5.0); amine_primary(9.0~11.0); amine_secondary(9.5~11.5)
C[C@@H](NC(=O)[C@@H](N)Cc1ccc(O)cc1)C(O)=O,9.79,16:6:2,carboxylic_acid:amine_primary:amine_secondary,L-Tyrosyl-D-alanine,[HL]/[L][H],0.1,25.0,16:6:2,carboxylic_acid:amine_primary:amine_secondary,16(carboxylic_acid) > 6(amine_primary) > 2(amine_secondary),amine_primary,carboxylic_acid(1.5~5.0); amine_primary(9.0~11.0); amine_secondary(9.5~11.5)
C[C@@H](NC(=O)[C@@H](N)Cc1ccc(O)cc1)C(O)=O,7.66,16:6:2,carboxylic_acid:amine_primary:amine_secondary,L-Tyrosyl-D-alanine,[H₂L]/[HL][H],0.1,25.0,16:6:2,carboxylic_acid:amine_primary:amine_secondary,16(carboxylic_acid) > 6(amine_primary) > 2(amine_secondary),amine_primary,carboxylic_acid(1.5~5.0); amine_primary(9.0~11.0); amine_secondary(9.5~11.5)
C[C@@H](NC(=O)[C@@H](N)Cc1ccc(O)cc1)C(O)=O,3.05,16:6:2,carboxylic_acid:amine_primary:amine_secondary,L-Tyrosyl-D-alanine,[H₃L]/[H₂L][H],0.1,25.0,16:6:2,carboxylic_acid:amine_primary:amine_secondary,16(carboxylic_acid) > 6(amine_primary) > 2(amine_secondary),carboxylic_acid,carboxylic_acid(1.5~5.0); amine_primary(9.0~11.0); amine_secondary(9.5~11.5)