SMILES,pKa,Dissociable_Atoms,Functional_Group,Name,Equilibrium,Ionic,Temperature,Dissociable_Atoms_Ordered,Functional_Group_Ordered,Dissociation_Order,Dissociating_Group,Functional_Group_pKa_Ranges
OC(=O)CC(NCCNC(CC(O)=O)C(O)=O)C(O)=O,7.52,0:12:15:18,carboxylic_acid:carboxylic_acid:carboxylic_acid:carboxylic_acid,Ethylenediiminodibutanedioic acid (EDDS),[H₂L]/[HL][H],0.0,25.0,0:12:15:18,carboxylic_acid:carboxylic_acid:carboxylic_acid:carboxylic_acid,0(carboxylic_acid) > 12(carboxylic_acid) > 15(carboxylic_acid) > 18(carboxylic_acid),carboxylic_acid,carboxylic_acid(1.5~5.0); carboxylic_acid(1.5~5.0); carboxylic_acid(1.5~5.0); carboxylic_acid(1.5~5.0)
OC(=O)CC(NCCNC(CC(O)=O)C(O)=O)C(O)=O,3.86,0:12:15:18,carboxylic_acid:carboxylic_acid:carboxylic_acid:carboxylic_acid,Ethylenediiminodibutanedioic acid (EDDS),[H₃L]/[H₂L][H],0.1,25.0,0:12:15:18,carboxylic_acid:carboxylic_acid:carboxylic_acid:carboxylic_acid,0(carboxylic_acid) > 12(carboxylic_acid) > 15(carboxylic_acid) > 18(carboxylic_acid),carboxylic_acid,carboxylic_acid(1.5~5.0); carboxylic_acid(1.5~5.0); carboxylic_acid(1.5~5.0); carboxylic_acid(1.5~5.0)
OC(=O)CC(NCCNC(CC(O)=O)C(O)=O)C(O)=O,3.85,0:12:15:18,carboxylic_acid:carboxylic_acid:carboxylic_acid:carboxylic_acid,Ethylenediiminodibutanedioic acid (EDDS),[H₃L]/[H₂L][H],0.1,20.0,0:12:15:18,carboxylic_acid:carboxylic_acid:carboxylic_acid:carboxylic_acid,0(carboxylic_acid) > 12(carboxylic_acid) > 15(carboxylic_acid) > 18(carboxylic_acid),carboxylic_acid,carboxylic_acid(1.5~5.0); carboxylic_acid(1.5~5.0); carboxylic_acid(1.5~5.0); carboxylic_acid(1.5~5.0)
OC(=O)CC(NCCNC(CC(O)=O)C(O)=O)C(O)=O,3.76,0:12:15:18,carboxylic_acid:carboxylic_acid:carboxylic_acid:carboxylic_acid,Ethylenediiminodibutanedioic acid (EDDS),[H₃L]/[H₂L][H],0.5,25.0,0:12:15:18,carboxylic_acid:carboxylic_acid:carboxylic_acid:carboxylic_acid,0(carboxylic_acid) > 12(carboxylic_acid) > 15(carboxylic_acid) > 18(carboxylic_acid),carboxylic_acid,carboxylic_acid(1.5~5.0); carboxylic_acid(1.5~5.0); carboxylic_acid(1.5~5.0); carboxylic_acid(1.5~5.0)
OC(=O)CC(NCCNC(CC(O)=O)C(O)=O)C(O)=O,3.81,0:12:15:18,carboxylic_acid:carboxylic_acid:carboxylic_acid:carboxylic_acid,Ethylenediiminodibutanedioic acid (EDDS),[H₃L]/[H₂L][H],1.0,25.0,0:12:15:18,carboxylic_acid:carboxylic_acid:carboxylic_acid:carboxylic_acid,0(carboxylic_acid) > 12(carboxylic_acid) > 15(carboxylic_acid) > 18(carboxylic_acid),carboxylic_acid,carboxylic_acid(1.5~5.0); carboxylic_acid(1.5~5.0); carboxylic_acid(1.5~5.0); carboxylic_acid(1.5~5.0)
OC(=O)CC(NCCNC(CC(O)=O)C(O)=O)C(O)=O,4.28,0:12:15:18,carboxylic_acid:carboxylic_acid:carboxylic_acid:carboxylic_acid,Ethylenediiminodibutanedioic acid (EDDS),[H₃L]/[H₂L][H],0.0,25.0,0:12:15:18,carboxylic_acid:carboxylic_acid:carboxylic_acid:carboxylic_acid,0(carboxylic_acid) > 12(carboxylic_acid) > 15(carboxylic_acid) > 18(carboxylic_acid),carboxylic_acid,carboxylic_acid(1.5~5.0); carboxylic_acid(1.5~5.0); carboxylic_acid(1.5~5.0); carboxylic_acid(1.5~5.0)
OC(=O)CC(NCCNC(CC(O)=O)C(O)=O)C(O)=O,2.95,0:12:15:18,carboxylic_acid:carboxylic_acid:carboxylic_acid:carboxylic_acid,Ethylenediiminodibutanedioic acid (EDDS),[H₄L]/[H₃L][H],0.1,25.0,0:12:15:18,carboxylic_acid:carboxylic_acid:carboxylic_acid:carboxylic_acid,0(carboxylic_acid) > 12(carboxylic_acid) > 15(carboxylic_acid) > 18(carboxylic_acid),carboxylic_acid,carboxylic_acid(1.5~5.0); carboxylic_acid(1.5~5.0); carboxylic_acid(1.5~5.0); carboxylic_acid(1.5~5.0)
OC(=O)CC(NCCNC(CC(O)=O)C(O)=O)C(O)=O,3.0,0:12:15:18,carboxylic_acid:carboxylic_acid:carboxylic_acid:carboxylic_acid,Ethylenediiminodibutanedioic acid (EDDS),[H₄L]/[H₃L][H],0.1,20.0,0:12:15:18,carboxylic_acid:carboxylic_acid:carboxylic_acid:carboxylic_acid,0(carboxylic_acid) > 12(carboxylic_acid) > 15(carboxylic_acid) > 18(carboxylic_acid),carboxylic_acid,carboxylic_acid(1.5~5.0); carboxylic_acid(1.5~5.0); carboxylic_acid(1.5~5.0); carboxylic_acid(1.5~5.0)
OC(CNC(C(O)=O)C(O)=O)CNC(C(O)=O)C(O)=O,10.4,6:9:15:18,carboxylic_acid:carboxylic_acid:carboxylic_acid:carboxylic_acid,"2-Hydroxy-1,3-propylenediiminodipropanedioic acid",[HL]/[L][H],0.1,25.0,6:9:15:18,carboxylic_acid:carboxylic_acid:carboxylic_acid:carboxylic_acid,6(carboxylic_acid) > 9(carboxylic_acid) > 15(carboxylic_acid) > 18(carboxylic_acid),carboxylic_acid,carboxylic_acid(1.5~5.0); carboxylic_acid(1.5~5.0); carboxylic_acid(1.5~5.0); carboxylic_acid(1.5~5.0)
OC(CNC(C(O)=O)C(O)=O)CNC(C(O)=O)C(O)=O,8.9,6:9:15:18,carboxylic_acid:carboxylic_acid:carboxylic_acid:carboxylic_acid,"2-Hydroxy-1,3-propylenediiminodipropanedioic acid",[H₂L]/[HL][H],0.1,25.0,6:9:15:18,carboxylic_acid:carboxylic_acid:carboxylic_acid:carboxylic_acid,6(carboxylic_acid) > 9(carboxylic_acid) > 15(carboxylic_acid) > 18(carboxylic_acid),carboxylic_acid,carboxylic_acid(1.5~5.0); carboxylic_acid(1.5~5.0); carboxylic_acid(1.5~5.0); carboxylic_acid(1.5~5.0)
OC(CNC(C(O)=O)C(O)=O)CNC(C(O)=O)C(O)=O,3.4,6:9:15:18,carboxylic_acid:carboxylic_acid:carboxylic_acid:carboxylic_acid,"2-Hydroxy-1,3-propylenediiminodipropanedioic acid",[H₃L]/[H₂L][H],0.1,25.0,6:9:15:18,carboxylic_acid:carboxylic_acid:carboxylic_acid:carboxylic_acid,6(carboxylic_acid) > 9(carboxylic_acid) > 15(carboxylic_acid) > 18(carboxylic_acid),carboxylic_acid,carboxylic_acid(1.5~5.0); carboxylic_acid(1.5~5.0); carboxylic_acid(1.5~5.0); carboxylic_acid(1.5~5.0)
OC(CNC(C(O)=O)C(O)=O)CNC(C(O)=O)C(O)=O,2.41,6:9:15:18,carboxylic_acid:carboxylic_acid:carboxylic_acid:carboxylic_acid,"2-Hydroxy-1,3-propylenediiminodipropanedioic acid",[H₄L]/[H₃L][H],0.1,25.0,6:9:15:18,carboxylic_acid:carboxylic_acid:carboxylic_acid:carboxylic_acid,6(carboxylic_acid) > 9(carboxylic_acid) > 15(carboxylic_acid) > 18(carboxylic_acid),carboxylic_acid,carboxylic_acid(1.5~5.0); carboxylic_acid(1.5~5.0); carboxylic_acid(1.5~5.0); carboxylic_acid(1.5~5.0)
OC(=O)[C@H](CS)NCCN[C@@H](CS)C(O)=O,11.14,0:14:6:9:5,carboxylic_acid:carboxylic_acid:amine_secondary:amine_secondary:thiol,"L,L-Ethylenediimino-2,2'-bis(mercaptomethyl)acetic acid (N,N'-Ethylenedi-L-cysteine)",[HL]/[L][H],0.1,25.0,0:14:5:6:9,carboxylic_acid:carboxylic_acid:thiol:amine_secondary:amine_secondary,0(carboxylic_acid) > 14(carboxylic_acid) > 5(thiol) > 6(amine_secondary) > 9(amine_secondary),amine_secondary,carboxylic_acid(1.5~5.0); carboxylic_acid(1.5~5.0); amine_secondary(9.5~11.5); amine_secondary(9.5~11.5); thiol(8.0~11.0)
OC(=O)[C@H](CS)NCCN[C@@H](CS)C(O)=O,9.88,0:14:6:9:5,carboxylic_acid:carboxylic_acid:amine_secondary:amine_secondary:thiol,"L,L-Ethylenediimino-2,2'-bis(mercaptomethyl)acetic acid (N,N'-Ethylenedi-L-cysteine)",[H₂L]/[HL][H],0.1,25.0,0:14:5:6:9,carboxylic_acid:carboxylic_acid:thiol:amine_secondary:amine_secondary,0(carboxylic_acid) > 14(carboxylic_acid) > 5(thiol) > 6(amine_secondary) > 9(amine_secondary),thiol,carboxylic_acid(1.5~5.0); carboxylic_acid(1.5~5.0); amine_secondary(9.5~11.5); amine_secondary(9.5~11.5); thiol(8.0~11.0)
OC(=O)[C@H](CS)NCCN[C@@H](CS)C(O)=O,7.91,0:14:6:9:5,carboxylic_acid:carboxylic_acid:amine_secondary:amine_secondary:thiol,"L,L-Ethylenediimino-2,2'-bis(mercaptomethyl)acetic acid (N,N'-Ethylenedi-L-cysteine)",[H₃L]/[H₂L][H],0.1,25.0,0:14:5:6:9,carboxylic_acid:carboxylic_acid:thiol:amine_secondary:amine_secondary,0(carboxylic_acid) > 14(carboxylic_acid) > 5(thiol) > 6(amine_secondary) > 9(amine_secondary),thiol,carboxylic_acid(1.5~5.0); carboxylic_acid(1.5~5.0); amine_secondary(9.5~11.5); amine_secondary(9.5~11.5); thiol(8.0~11.0)
OC(=O)[C@H](CS)NCCN[C@@H](CS)C(O)=O,5.4,0:14:6:9:5,carboxylic_acid:carboxylic_acid:amine_secondary:amine_secondary:thiol,"L,L-Ethylenediimino-2,2'-bis(mercaptomethyl)acetic acid (N,N'-Ethylenedi-L-cysteine)",[H₄L]/[H₃L][H],0.1,25.0,0:14:5:6:9,carboxylic_acid:carboxylic_acid:thiol:amine_secondary:amine_secondary,0(carboxylic_acid) > 14(carboxylic_acid) > 5(thiol) > 6(amine_secondary) > 9(amine_secondary),carboxylic_acid,carboxylic_acid(1.5~5.0); carboxylic_acid(1.5~5.0); amine_secondary(9.5~11.5); amine_secondary(9.5~11.5); thiol(8.0~11.0)
OC(=O)[C@H](CS)NCCN[C@@H](CS)C(O)=O,1.7,0:14:6:9:5,carboxylic_acid:carboxylic_acid:amine_secondary:amine_secondary:thiol,"L,L-Ethylenediimino-2,2'-bis(mercaptomethyl)acetic acid (N,N'-Ethylenedi-L-cysteine)",[H₅L]/[H₄L][H],0.1,25.0,0:14:5:6:9,carboxylic_acid:carboxylic_acid:thiol:amine_secondary:amine_secondary,0(carboxylic_acid) > 14(carboxylic_acid) > 5(thiol) > 6(amine_secondary) > 9(amine_secondary),carboxylic_acid,carboxylic_acid(1.5~5.0); carboxylic_acid(1.5~5.0); amine_secondary(9.5~11.5); amine_secondary(9.5~11.5); thiol(8.0~11.0)
OC(CN(CC(O)=O)CC(O)=O)c1ccccc1,8.43,6:10,carboxylic_acid:carboxylic_acid,N-(2-Hydroxy-2-phenylethyl)iminodiacetic acid,[HL]/[L][H],0.0,25.0,6:10,carboxylic_acid:carboxylic_acid,6(carboxylic_acid) > 10(carboxylic_acid),carboxylic_acid,carboxylic_acid(1.5~5.0); carboxylic_acid(1.5~5.0)
OC(CN(CC(O)=O)CC(O)=O)c1ccccc1,3.17,6:10,carboxylic_acid:carboxylic_acid,N-(2-Hydroxy-2-phenylethyl)iminodiacetic acid,[H₂L]/[HL][H],0.0,25.0,6:10,carboxylic_acid:carboxylic_acid,6(carboxylic_acid) > 10(carboxylic_acid),carboxylic_acid,carboxylic_acid(1.5~5.0); carboxylic_acid(1.5~5.0)
OCCN(CCC(O)=O)CCC(O)=O,8.91,7:12,carboxylic_acid:carboxylic_acid,N-(2-Hydroxyethyl)iminodi-3-propanoic acid,[HL]/[L][H],0.1,30.0,7:12,carboxylic_acid:carboxylic_acid,7(carboxylic_acid) > 12(carboxylic_acid),carboxylic_acid,carboxylic_acid(1.5~5.0); carboxylic_acid(1.5~5.0)
OCCN(CCC(O)=O)CCC(O)=O,3.93,7:12,carboxylic_acid:carboxylic_acid,N-(2-Hydroxyethyl)iminodi-3-propanoic acid,[H₂L]/[HL][H],0.1,30.0,7:12,carboxylic_acid:carboxylic_acid,7(carboxylic_acid) > 12(carboxylic_acid),carboxylic_acid,carboxylic_acid(1.5~5.0); carboxylic_acid(1.5~5.0)
OCC(CO)N(CC(O)=O)CC(O)=O,8.58,8:12,carboxylic_acid:carboxylic_acid,"N-(1,3-Dihydroxy-2-propyl)iminodiacetic acid",[HL]/[L][H],0.0,25.0,8:12,carboxylic_acid:carboxylic_acid,8(carboxylic_acid) > 12(carboxylic_acid),carboxylic_acid,carboxylic_acid(1.5~5.0); carboxylic_acid(1.5~5.0)
OCC(CO)N(CC(O)=O)CC(O)=O,2.65,8:12,carboxylic_acid:carboxylic_acid,"N-(1,3-Dihydroxy-2-propyl)iminodiacetic acid",[H₂L]/[HL][H],0.0,25.0,8:12,carboxylic_acid:carboxylic_acid,8(carboxylic_acid) > 12(carboxylic_acid),carboxylic_acid,carboxylic_acid(1.5~5.0); carboxylic_acid(1.5~5.0)
CC(CO)(CO)N(CC(O)=O)CC(O)=O,8.45,9:13,carboxylic_acid:carboxylic_acid,"N-(1,3-Dihydroxy-2-methyl-2-propyl)iminodiacetic acid",[HL]/[L][H],0.0,25.0,9:13,carboxylic_acid:carboxylic_acid,9(carboxylic_acid) > 13(carboxylic_acid),carboxylic_acid,carboxylic_acid(1.5~5.0); carboxylic_acid(1.5~5.0)
CC(CO)(CO)N(CC(O)=O)CC(O)=O,2.78,9:13,carboxylic_acid:carboxylic_acid,"N-(1,3-Dihydroxy-2-methyl-2-propyl)iminodiacetic acid",[H₂L]/[HL][H],0.0,25.0,9:13,carboxylic_acid:carboxylic_acid,9(carboxylic_acid) > 13(carboxylic_acid),carboxylic_acid,carboxylic_acid(1.5~5.0); carboxylic_acid(1.5~5.0)
CCC(CO)(CO)N(CC(O)=O)CC(O)=O,8.51,10:14,carboxylic_acid:carboxylic_acid,"N-(1,3-Dihydroxy-2-ethyl-2-propyl)iminodiacetic acid",[HL]/[L][H],0.0,25.0,10:14,carboxylic_acid:carboxylic_acid,10(carboxylic_acid) > 14(carboxylic_acid),carboxylic_acid,carboxylic_acid(1.5~5.0); carboxylic_acid(1.5~5.0)
CCC(CO)(CO)N(CC(O)=O)CC(O)=O,3.01,10:14,carboxylic_acid:carboxylic_acid,"N-(1,3-Dihydroxy-2-ethyl-2-propyl)iminodiacetic acid",[H₂L]/[HL][H],0.0,25.0,10:14,carboxylic_acid:carboxylic_acid,10(carboxylic_acid) > 14(carboxylic_acid),carboxylic_acid,carboxylic_acid(1.5~5.0); carboxylic_acid(1.5~5.0)
OCC(C(O)c1ccccc1)N(CC(O)=O)CC(O)=O,8.64,14:18,carboxylic_acid:carboxylic_acid,"N-(1,3-Dihydroxy-1-phenyl-2-propyl)iminodiacetic acid",[HL]/[L][H],0.0,25.0,14:18,carboxylic_acid:carboxylic_acid,14(carboxylic_acid) > 18(carboxylic_acid),carboxylic_acid,carboxylic_acid(1.5~5.0); carboxylic_acid(1.5~5.0)
OCC(C(O)c1ccccc1)N(CC(O)=O)CC(O)=O,2.52,14:18,carboxylic_acid:carboxylic_acid,"N-(1,3-Dihydroxy-1-phenyl-2-propyl)iminodiacetic acid",[H₂L]/[HL][H],0.0,25.0,14:18,carboxylic_acid:carboxylic_acid,14(carboxylic_acid) > 18(carboxylic_acid),carboxylic_acid,carboxylic_acid(1.5~5.0); carboxylic_acid(1.5~5.0)
COCCN(CC(O)=O)CC(O)=O,8.95,7:11,carboxylic_acid:carboxylic_acid,N-(2-Methoxyethyl)iminodiacetic acid,[HL]/[L][H],0.1,25.0,7:11,carboxylic_acid:carboxylic_acid,7(carboxylic_acid) > 11(carboxylic_acid),carboxylic_acid,carboxylic_acid(1.5~5.0); carboxylic_acid(1.5~5.0)
COCCN(CC(O)=O)CC(O)=O,8.96,7:11,carboxylic_acid:carboxylic_acid,N-(2-Methoxyethyl)iminodiacetic acid,[HL]/[L][H],0.1,20.0,7:11,carboxylic_acid:carboxylic_acid,7(carboxylic_acid) > 11(carboxylic_acid),carboxylic_acid,carboxylic_acid(1.5~5.0); carboxylic_acid(1.5~5.0)
COCCN(CC(O)=O)CC(O)=O,9.25,7:11,carboxylic_acid:carboxylic_acid,N-(2-Methoxyethyl)iminodiacetic acid,[HL]/[L][H],0.0,25.0,7:11,carboxylic_acid:carboxylic_acid,7(carboxylic_acid) > 11(carboxylic_acid),carboxylic_acid,carboxylic_acid(1.5~5.0); carboxylic_acid(1.5~5.0)
COCCN(CC(O)=O)CC(O)=O,2.18,7:11,carboxylic_acid:carboxylic_acid,N-(2-Methoxyethyl)iminodiacetic acid,[H₂L]/[HL][H],0.1,25.0,7:11,carboxylic_acid:carboxylic_acid,7(carboxylic_acid) > 11(carboxylic_acid),carboxylic_acid,carboxylic_acid(1.5~5.0); carboxylic_acid(1.5~5.0)
COCCN(CC(O)=O)CC(O)=O,2.2,7:11,carboxylic_acid:carboxylic_acid,N-(2-Methoxyethyl)iminodiacetic acid,[H₂L]/[HL][H],0.1,20.0,7:11,carboxylic_acid:carboxylic_acid,7(carboxylic_acid) > 11(carboxylic_acid),carboxylic_acid,carboxylic_acid(1.5~5.0); carboxylic_acid(1.5~5.0)
COCCN(CC(O)=O)CC(O)=O,2.48,7:11,carboxylic_acid:carboxylic_acid,N-(2-Methoxyethyl)iminodiacetic acid,[H₂L]/[HL][H],0.0,25.0,7:11,carboxylic_acid:carboxylic_acid,7(carboxylic_acid) > 11(carboxylic_acid),carboxylic_acid,carboxylic_acid(1.5~5.0); carboxylic_acid(1.5~5.0)
COCCCN(CC(O)=O)CC(O)=O,10.02,8:12,carboxylic_acid:carboxylic_acid,N-(3-Methoxypropyl)iminodiacetic acid,[HL]/[L][H],0.0,25.0,8:12,carboxylic_acid:carboxylic_acid,8(carboxylic_acid) > 12(carboxylic_acid),carboxylic_acid,carboxylic_acid(1.5~5.0); carboxylic_acid(1.5~5.0)
COCCCN(CC(O)=O)CC(O)=O,2.61,8:12,carboxylic_acid:carboxylic_acid,N-(3-Methoxypropyl)iminodiacetic acid,[H₂L]/[HL][H],0.0,25.0,8:12,carboxylic_acid:carboxylic_acid,8(carboxylic_acid) > 12(carboxylic_acid),carboxylic_acid,carboxylic_acid(1.5~5.0); carboxylic_acid(1.5~5.0)
OC(=O)CN(CC1CCCCO1)CC(O)=O,9.04,0:14,carboxylic_acid:carboxylic_acid,N-(2-Tetrahydropyranylmethyl)iminodiacetic acid,[HL]/[L][H],0.1,20.0,0:14,carboxylic_acid:carboxylic_acid,0(carboxylic_acid) > 14(carboxylic_acid),carboxylic_acid,carboxylic_acid(1.5~5.0); carboxylic_acid(1.5~5.0)
OC(=O)CN(CC1CCCCO1)CC(O)=O,1.9,0:14,carboxylic_acid:carboxylic_acid,N-(2-Tetrahydropyranylmethyl)iminodiacetic acid,[H₂L]/[HL][H],0.1,20.0,0:14,carboxylic_acid:carboxylic_acid,0(carboxylic_acid) > 14(carboxylic_acid),carboxylic_acid,carboxylic_acid(1.5~5.0); carboxylic_acid(1.5~5.0)
OC(=O)CN(CC(O)=O)Cc1occc1,8.4,0:7,carboxylic_acid:carboxylic_acid,N-(2-Furylmethyl)iminodiacetic acid,[HL]/[L][H],0.1,20.0,0:7,carboxylic_acid:carboxylic_acid,0(carboxylic_acid) > 7(carboxylic_acid),carboxylic_acid,carboxylic_acid(1.5~5.0); carboxylic_acid(1.5~5.0)
OC(=O)CN(CC(O)=O)Cc1occc1,2.17,0:7,carboxylic_acid:carboxylic_acid,N-(2-Furylmethyl)iminodiacetic acid,[H₂L]/[HL][H],0.1,20.0,0:7,carboxylic_acid:carboxylic_acid,0(carboxylic_acid) > 7(carboxylic_acid),carboxylic_acid,carboxylic_acid(1.5~5.0); carboxylic_acid(1.5~5.0)
OC(=O)CN(CCOc1ccccc1)CC(O)=O,8.38,7,tertiary_amine,N-(2-Phenoxyethyl)iminodiacetic acid,[HL]/[L][H],0.1,30.0,7,tertiary_amine,7(tertiary_amine),Unknown,tertiary_amine(Unknown)
CC(=O)CN(CC(O)=O)CC(O)=O,7.71,7:11,carboxylic_acid:carboxylic_acid,N-(2-Oxopropyl)iminodiacetic acid,[HL]/[L][H],0.1,25.0,7:11,carboxylic_acid:carboxylic_acid,7(carboxylic_acid) > 11(carboxylic_acid),carboxylic_acid,carboxylic_acid(1.5~5.0); carboxylic_acid(1.5~5.0)
CC(=O)CN(CC(O)=O)CC(O)=O,2.62,7:11,carboxylic_acid:carboxylic_acid,N-(2-Oxopropyl)iminodiacetic acid,[H₂L]/[HL][H],0.1,25.0,7:11,carboxylic_acid:carboxylic_acid,7(carboxylic_acid) > 11(carboxylic_acid),carboxylic_acid,carboxylic_acid(1.5~5.0); carboxylic_acid(1.5~5.0)
OC(=O)CN(CC(O)=O)CC(=O)c1ccccc1,7.89,7,tertiary_amine,N-(Benzoylmethyl)iminodiacetic acid,[HL]/[L][H],0.1,25.0,7,tertiary_amine,7(tertiary_amine),Unknown,tertiary_amine(Unknown)
OC(=O)CN(CC(O)=O)CC(=O)c1ccccc1,7.91,7,tertiary_amine,N-(Benzoylmethyl)iminodiacetic acid,[HL]/[L][H],0.1,30.0,7,tertiary_amine,7(tertiary_amine),Unknown,tertiary_amine(Unknown)
OC(=O)CN(CC(O)=O)CC(=O)c1ccccc1,1.9,7,tertiary_amine,N-(Benzoylmethyl)iminodiacetic acid,[H₂L]/[HL][H],0.1,25.0,7,tertiary_amine,7(tertiary_amine),Unknown,tertiary_amine(Unknown)
OC(=O)CN(CC(O)=O)CC(=O)c1ccccc1,1.7,7,tertiary_amine,N-(Benzoylmethyl)iminodiacetic acid,[H₂L]/[HL][H],0.1,30.0,7,tertiary_amine,7(tertiary_amine),Unknown,tertiary_amine(Unknown)
OC(=O)CN(CC(O)=O)CC(=O)c1ccccc1,1.1,7,tertiary_amine,N-(Benzoylmethyl)iminodiacetic acid,[H₃L]/[H₂L][H],0.1,30.0,7,tertiary_amine,7(tertiary_amine),Unknown,tertiary_amine(Unknown)
OC(=O)CN(CC(O)=O)CC(=O)Nc1ccccc1,6.1,0:7,carboxylic_acid:carboxylic_acid,N-(Phenylcarbamylmethyl)iminodiacetic acid,[HL]/[L][H],0.5,25.0,0:7,carboxylic_acid:carboxylic_acid,0(carboxylic_acid) > 7(carboxylic_acid),carboxylic_acid,carboxylic_acid(1.5~5.0); carboxylic_acid(1.5~5.0)
OC(=O)CN(CC(O)=O)CC(=O)Nc1ccccc1,2.07,0:7,carboxylic_acid:carboxylic_acid,N-(Phenylcarbamylmethyl)iminodiacetic acid,[H₂L]/[HL][H],0.5,25.0,0:7,carboxylic_acid:carboxylic_acid,0(carboxylic_acid) > 7(carboxylic_acid),carboxylic_acid,carboxylic_acid(1.5~5.0); carboxylic_acid(1.5~5.0)
Cc1cccc(C)c1NC(=O)CN(CC(O)=O)CC(O)=O,5.88,15:19,carboxylic_acid:carboxylic_acid,"N-(2,6-Dimethylphenylcarbamylmethyl)iminodiacetic acid",[HL]/[L][H],0.5,25.0,15:19,carboxylic_acid:carboxylic_acid,15(carboxylic_acid) > 19(carboxylic_acid),carboxylic_acid,carboxylic_acid(1.5~5.0); carboxylic_acid(1.5~5.0)
Cc1cccc(C)c1NC(=O)CN(CC(O)=O)CC(O)=O,2.16,15:19,carboxylic_acid:carboxylic_acid,"N-(2,6-Dimethylphenylcarbamylmethyl)iminodiacetic acid",[H₂L]/[HL][H],0.5,25.0,15:19,carboxylic_acid:carboxylic_acid,15(carboxylic_acid) > 19(carboxylic_acid),carboxylic_acid,carboxylic_acid(1.5~5.0); carboxylic_acid(1.5~5.0)
Cc1cc(C)c(NC(=O)CN(CC(O)=O)CC(O)=O)c(C)c1,6.01,13:17,carboxylic_acid:carboxylic_acid,"N-(2,4,6-Trimethylphenylcarbamylmethyl)iminodiacetic acid",[HL]/[L][H],0.5,25.0,13:17,carboxylic_acid:carboxylic_acid,13(carboxylic_acid) > 17(carboxylic_acid),carboxylic_acid,carboxylic_acid(1.5~5.0); carboxylic_acid(1.5~5.0)
Cc1cc(C)c(NC(=O)CN(CC(O)=O)CC(O)=O)c(C)c1,2.19,13:17,carboxylic_acid:carboxylic_acid,"N-(2,4,6-Trimethylphenylcarbamylmethyl)iminodiacetic acid",[H₂L]/[HL][H],0.5,25.0,13:17,carboxylic_acid:carboxylic_acid,13(carboxylic_acid) > 17(carboxylic_acid),carboxylic_acid,carboxylic_acid(1.5~5.0); carboxylic_acid(1.5~5.0)
CCc1ccc(NC(=O)CN(CC(O)=O)CC(O)=O)c(CC)c1,5.77,13:17,carboxylic_acid:carboxylic_acid,"N-(2,4-Diethylphenylcarbamylmethyl)iminodiacetic acid",[HL]/[L][H],0.5,25.0,13:17,carboxylic_acid:carboxylic_acid,13(carboxylic_acid) > 17(carboxylic_acid),carboxylic_acid,carboxylic_acid(1.5~5.0); carboxylic_acid(1.5~5.0)
CCc1ccc(NC(=O)CN(CC(O)=O)CC(O)=O)c(CC)c1,2.14,13:17,carboxylic_acid:carboxylic_acid,"N-(2,4-Diethylphenylcarbamylmethyl)iminodiacetic acid",[H₂L]/[HL][H],0.5,25.0,13:17,carboxylic_acid:carboxylic_acid,13(carboxylic_acid) > 17(carboxylic_acid),carboxylic_acid,carboxylic_acid(1.5~5.0); carboxylic_acid(1.5~5.0)
CC(C)c1cccc(C(C)C)c1NC(=O)CN(CC(O)=O)CC(O)=O,5.83,19:23,carboxylic_acid:carboxylic_acid,"N-(2,6-Di-2-propylphenylcarbamylmethyl)iminodiacetic acid",[HL]/[L][H],0.5,25.0,19:23,carboxylic_acid:carboxylic_acid,19(carboxylic_acid) > 23(carboxylic_acid),carboxylic_acid,carboxylic_acid(1.5~5.0); carboxylic_acid(1.5~5.0)
CC(C)c1cccc(C(C)C)c1NC(=O)CN(CC(O)=O)CC(O)=O,2.2,19:23,carboxylic_acid:carboxylic_acid,"N-(2,6-Di-2-propylphenylcarbamylmethyl)iminodiacetic acid",[H₂L]/[HL][H],0.5,25.0,19:23,carboxylic_acid:carboxylic_acid,19(carboxylic_acid) > 23(carboxylic_acid),carboxylic_acid,carboxylic_acid(1.5~5.0); carboxylic_acid(1.5~5.0)