SMILES,pKa,Dissociable_Atoms,Functional_Group,Name,Equilibrium,Ionic,Temperature,Dissociable_Atoms_Ordered,Functional_Group_Ordered,Dissociation_Order,Dissociating_Group,Functional_Group_pKa_Ranges
N[C@@H](CO[P](O)(O)=O)C(O)=O,9.66,9:0:4:5,carboxylic_acid:amine_primary:phosphate:phosphate,L-2-Amino-3-phosphopropanoic acid (Phosphoserine),[HL]/[L][H],0.15,37.0,9:0:4:5,carboxylic_acid:amine_primary:phosphate:phosphate,9(carboxylic_acid) > 0(amine_primary) > 4(phosphate) > 5(phosphate),amine_primary,"carboxylic_acid(1.5~5.0); amine_primary(9.0~11.0); phosphate(1.0~3.0, 5.0~7.0, 9.0~12.0); phosphate(1.0~3.0, 5.0~7.0, 9.0~12.0)"
N[C@@H](CO[P](O)(O)=O)C(O)=O,9.71,9:0:4:5,carboxylic_acid:amine_primary:phosphate:phosphate,L-2-Amino-3-phosphopropanoic acid (Phosphoserine),[HL]/[L][H],0.15,37.0,9:0:4:5,carboxylic_acid:amine_primary:phosphate:phosphate,9(carboxylic_acid) > 0(amine_primary) > 4(phosphate) > 5(phosphate),amine_primary,"carboxylic_acid(1.5~5.0); amine_primary(9.0~11.0); phosphate(1.0~3.0, 5.0~7.0, 9.0~12.0); phosphate(1.0~3.0, 5.0~7.0, 9.0~12.0)"
N[C@@H](CO[P](O)(O)=O)C(O)=O,9.59,9:0:4:5,carboxylic_acid:amine_primary:phosphate:phosphate,L-2-Amino-3-phosphopropanoic acid (Phosphoserine),[HL]/[L][H],1.0,25.0,9:0:4:5,carboxylic_acid:amine_primary:phosphate:phosphate,9(carboxylic_acid) > 0(amine_primary) > 4(phosphate) > 5(phosphate),amine_primary,"carboxylic_acid(1.5~5.0); amine_primary(9.0~11.0); phosphate(1.0~3.0, 5.0~7.0, 9.0~12.0); phosphate(1.0~3.0, 5.0~7.0, 9.0~12.0)"
N[C@@H](CO[P](O)(O)=O)C(O)=O,5.7,9:0:4:5,carboxylic_acid:amine_primary:phosphate:phosphate,L-2-Amino-3-phosphopropanoic acid (Phosphoserine),[H₂L]/[HL][H],0.1,25.0,9:4:5:0,carboxylic_acid:phosphate:phosphate:amine_primary,9(carboxylic_acid) > 4(phosphate) > 5(phosphate) > 0(amine_primary),phosphate,"carboxylic_acid(1.5~5.0); amine_primary(9.0~11.0); phosphate(1.0~3.0, 5.0~7.0, 9.0~12.0); phosphate(1.0~3.0, 5.0~7.0, 9.0~12.0)"
N[C@@H](CO[P](O)(O)=O)C(O)=O,5.77,9:0:4:5,carboxylic_acid:amine_primary:phosphate:phosphate,L-2-Amino-3-phosphopropanoic acid (Phosphoserine),[H₂L]/[HL][H],0.15,37.0,9:4:5:0,carboxylic_acid:phosphate:phosphate:amine_primary,9(carboxylic_acid) > 4(phosphate) > 5(phosphate) > 0(amine_primary),phosphate,"carboxylic_acid(1.5~5.0); amine_primary(9.0~11.0); phosphate(1.0~3.0, 5.0~7.0, 9.0~12.0); phosphate(1.0~3.0, 5.0~7.0, 9.0~12.0)"
N[C@@H](CO[P](O)(O)=O)C(O)=O,5.89,9:0:4:5,carboxylic_acid:amine_primary:phosphate:phosphate,L-2-Amino-3-phosphopropanoic acid (Phosphoserine),[H₂L]/[HL][H],0.15,37.0,9:4:5:0,carboxylic_acid:phosphate:phosphate:amine_primary,9(carboxylic_acid) > 4(phosphate) > 5(phosphate) > 0(amine_primary),phosphate,"carboxylic_acid(1.5~5.0); amine_primary(9.0~11.0); phosphate(1.0~3.0, 5.0~7.0, 9.0~12.0); phosphate(1.0~3.0, 5.0~7.0, 9.0~12.0)"
N[C@@H](CO[P](O)(O)=O)C(O)=O,5.54,9:0:4:5,carboxylic_acid:amine_primary:phosphate:phosphate,L-2-Amino-3-phosphopropanoic acid (Phosphoserine),[H₂L]/[HL][H],0.5,25.0,9:4:5:0,carboxylic_acid:phosphate:phosphate:amine_primary,9(carboxylic_acid) > 4(phosphate) > 5(phosphate) > 0(amine_primary),phosphate,"carboxylic_acid(1.5~5.0); amine_primary(9.0~11.0); phosphate(1.0~3.0, 5.0~7.0, 9.0~12.0); phosphate(1.0~3.0, 5.0~7.0, 9.0~12.0)"
N[C@@H](CO[P](O)(O)=O)C(O)=O,5.5,9:0:4:5,carboxylic_acid:amine_primary:phosphate:phosphate,L-2-Amino-3-phosphopropanoic acid (Phosphoserine),[H₂L]/[HL][H],1.0,25.0,9:4:5:0,carboxylic_acid:phosphate:phosphate:amine_primary,9(carboxylic_acid) > 4(phosphate) > 5(phosphate) > 0(amine_primary),phosphate,"carboxylic_acid(1.5~5.0); amine_primary(9.0~11.0); phosphate(1.0~3.0, 5.0~7.0, 9.0~12.0); phosphate(1.0~3.0, 5.0~7.0, 9.0~12.0)"
N[C@@H](CO[P](O)(O)=O)C(O)=O,5.53,9:0:4:5,carboxylic_acid:amine_primary:phosphate:phosphate,L-2-Amino-3-phosphopropanoic acid (Phosphoserine),[H₂L]/[HL][H],2.0,25.0,9:4:5:0,carboxylic_acid:phosphate:phosphate:amine_primary,9(carboxylic_acid) > 4(phosphate) > 5(phosphate) > 0(amine_primary),phosphate,"carboxylic_acid(1.5~5.0); amine_primary(9.0~11.0); phosphate(1.0~3.0, 5.0~7.0, 9.0~12.0); phosphate(1.0~3.0, 5.0~7.0, 9.0~12.0)"
N[C@@H](CO[P](O)(O)=O)C(O)=O,6.19,9:0:4:5,carboxylic_acid:amine_primary:phosphate:phosphate,L-2-Amino-3-phosphopropanoic acid (Phosphoserine),[H₂L]/[HL][H],0.0,25.0,9:4:5:0,carboxylic_acid:phosphate:phosphate:amine_primary,9(carboxylic_acid) > 4(phosphate) > 5(phosphate) > 0(amine_primary),phosphate,"carboxylic_acid(1.5~5.0); amine_primary(9.0~11.0); phosphate(1.0~3.0, 5.0~7.0, 9.0~12.0); phosphate(1.0~3.0, 5.0~7.0, 9.0~12.0)"
N[C@@H](CO[P](O)(O)=O)C(O)=O,2.14,9:0:4:5,carboxylic_acid:amine_primary:phosphate:phosphate,L-2-Amino-3-phosphopropanoic acid (Phosphoserine),[H₃L]/[H₂L][H],0.1,25.0,4:5:9:0,phosphate:phosphate:carboxylic_acid:amine_primary,4(phosphate) > 5(phosphate) > 9(carboxylic_acid) > 0(amine_primary),phosphate,"carboxylic_acid(1.5~5.0); amine_primary(9.0~11.0); phosphate(1.0~3.0, 5.0~7.0, 9.0~12.0); phosphate(1.0~3.0, 5.0~7.0, 9.0~12.0)"
N[C@@H](CO[P](O)(O)=O)C(O)=O,2.0,9:0:4:5,carboxylic_acid:amine_primary:phosphate:phosphate,L-2-Amino-3-phosphopropanoic acid (Phosphoserine),[H₃L]/[H₂L][H],0.15,37.0,4:5:9:0,phosphate:phosphate:carboxylic_acid:amine_primary,4(phosphate) > 5(phosphate) > 9(carboxylic_acid) > 0(amine_primary),phosphate,"carboxylic_acid(1.5~5.0); amine_primary(9.0~11.0); phosphate(1.0~3.0, 5.0~7.0, 9.0~12.0); phosphate(1.0~3.0, 5.0~7.0, 9.0~12.0)"
N[C@@H](CO[P](O)(O)=O)C(O)=O,2.13,9:0:4:5,carboxylic_acid:amine_primary:phosphate:phosphate,L-2-Amino-3-phosphopropanoic acid (Phosphoserine),[H₃L]/[H₂L][H],1.0,25.0,4:5:9:0,phosphate:phosphate:carboxylic_acid:amine_primary,4(phosphate) > 5(phosphate) > 9(carboxylic_acid) > 0(amine_primary),phosphate,"carboxylic_acid(1.5~5.0); amine_primary(9.0~11.0); phosphate(1.0~3.0, 5.0~7.0, 9.0~12.0); phosphate(1.0~3.0, 5.0~7.0, 9.0~12.0)"
N[C@@H](CO[P](O)(O)=O)C(O)=O,0.7,9:0:4:5,carboxylic_acid:amine_primary:phosphate:phosphate,L-2-Amino-3-phosphopropanoic acid (Phosphoserine),[H₄L]/[H₃L][H],0.1,25.0,4:5:9:0,phosphate:phosphate:carboxylic_acid:amine_primary,4(phosphate) > 5(phosphate) > 9(carboxylic_acid) > 0(amine_primary),phosphate,"carboxylic_acid(1.5~5.0); amine_primary(9.0~11.0); phosphate(1.0~3.0, 5.0~7.0, 9.0~12.0); phosphate(1.0~3.0, 5.0~7.0, 9.0~12.0)"
C[C@@H](O[P](O)(O)=O)[C@H](N)C(O)=O,9.67,10:8:3,carboxylic_acid:amine_primary:phosphate,L-2-Amino-3-phosphobutanoic acid (Phosphothreonine),[HL]/[L][H],0.1,25.0,10:8:3,carboxylic_acid:amine_primary:phosphate,10(carboxylic_acid) > 8(amine_primary) > 3(phosphate),amine_primary,"carboxylic_acid(1.5~5.0); amine_primary(9.0~11.0); phosphate(1.0~3.0, 5.0~7.0, 9.0~12.0)"
C[C@@H](O[P](O)(O)=O)[C@H](N)C(O)=O,5.83,10:8:3,carboxylic_acid:amine_primary:phosphate,L-2-Amino-3-phosphobutanoic acid (Phosphothreonine),[H₂L]/[HL][H],0.1,25.0,10:3:8,carboxylic_acid:phosphate:amine_primary,10(carboxylic_acid) > 3(phosphate) > 8(amine_primary),phosphate,"carboxylic_acid(1.5~5.0); amine_primary(9.0~11.0); phosphate(1.0~3.0, 5.0~7.0, 9.0~12.0)"
C[C@@H](O[P](O)(O)=O)[C@H](N)C(O)=O,2.25,10:8:3,carboxylic_acid:amine_primary:phosphate,L-2-Amino-3-phosphobutanoic acid (Phosphothreonine),[H₃L]/[H₂L][H],0.1,25.0,3:10:8,phosphate:carboxylic_acid:amine_primary,3(phosphate) > 10(carboxylic_acid) > 8(amine_primary),phosphate,"carboxylic_acid(1.5~5.0); amine_primary(9.0~11.0); phosphate(1.0~3.0, 5.0~7.0, 9.0~12.0)"
NC(Cc1ccccc1O)C(O)=O,11.01,0:9:11,amine_primary:phenol:carboxylic_acid,DL-2-Amino-3-(2-hydroxyphenyl)propanoic acid (o-Tyrosine),[HL]/[L][H],0.1,25.0,11:9:0,carboxylic_acid:phenol:amine_primary,11(carboxylic_acid) > 9(phenol) > 0(amine_primary),amine_primary,amine_primary(9.0~11.0); phenol(8.0~11.0); carboxylic_acid(1.5~5.0)
NC(Cc1ccccc1O)C(O)=O,10.81,0:9:11,amine_primary:phenol:carboxylic_acid,DL-2-Amino-3-(2-hydroxyphenyl)propanoic acid (o-Tyrosine),[HL]/[L][H],0.15,37.0,11:9:0,carboxylic_acid:phenol:amine_primary,11(carboxylic_acid) > 9(phenol) > 0(amine_primary),amine_primary,amine_primary(9.0~11.0); phenol(8.0~11.0); carboxylic_acid(1.5~5.0)
NC(Cc1ccccc1O)C(O)=O,8.67,0:9:11,amine_primary:phenol:carboxylic_acid,DL-2-Amino-3-(2-hydroxyphenyl)propanoic acid (o-Tyrosine),[H₂L]/[HL][H],0.1,25.0,11:9:0,carboxylic_acid:phenol:amine_primary,11(carboxylic_acid) > 9(phenol) > 0(amine_primary),phenol,amine_primary(9.0~11.0); phenol(8.0~11.0); carboxylic_acid(1.5~5.0)
NC(Cc1ccccc1O)C(O)=O,8.4,0:9:11,amine_primary:phenol:carboxylic_acid,DL-2-Amino-3-(2-hydroxyphenyl)propanoic acid (o-Tyrosine),[H₂L]/[HL][H],0.15,37.0,11:9:0,carboxylic_acid:phenol:amine_primary,11(carboxylic_acid) > 9(phenol) > 0(amine_primary),phenol,amine_primary(9.0~11.0); phenol(8.0~11.0); carboxylic_acid(1.5~5.0)
NC(Cc1ccccc1O)C(O)=O,2.41,0:9:11,amine_primary:phenol:carboxylic_acid,DL-2-Amino-3-(2-hydroxyphenyl)propanoic acid (o-Tyrosine),[H₃L]/[H₂L][H],0.1,25.0,11:9:0,carboxylic_acid:phenol:amine_primary,11(carboxylic_acid) > 9(phenol) > 0(amine_primary),carboxylic_acid,amine_primary(9.0~11.0); phenol(8.0~11.0); carboxylic_acid(1.5~5.0)
NC([C@H](O)c1ccccc1)C(O)=O,10.04,0:3:11,amine_primary:alcohol:carboxylic_acid,DL-2-Amino-3-(3-hydroxyphenyl)propanoic acid (m-Tyrosine),[HL]/[L][H],0.1,25.0,11:0:3,carboxylic_acid:amine_primary:alcohol,11(carboxylic_acid) > 0(amine_primary) > 3(alcohol),amine_primary,amine_primary(9.0~11.0); alcohol(15.0~18.0); carboxylic_acid(1.5~5.0)
NC([C@H](O)c1ccccc1)C(O)=O,9.82,0:3:11,amine_primary:alcohol:carboxylic_acid,DL-2-Amino-3-(3-hydroxyphenyl)propanoic acid (m-Tyrosine),[HL]/[L][H],0.15,37.0,11:0:3,carboxylic_acid:amine_primary:alcohol,11(carboxylic_acid) > 0(amine_primary) > 3(alcohol),amine_primary,amine_primary(9.0~11.0); alcohol(15.0~18.0); carboxylic_acid(1.5~5.0)
NC([C@H](O)c1ccccc1)C(O)=O,8.95,0:3:11,amine_primary:alcohol:carboxylic_acid,DL-2-Amino-3-(3-hydroxyphenyl)propanoic acid (m-Tyrosine),[H₂L]/[HL][H],0.1,25.0,11:0:3,carboxylic_acid:amine_primary:alcohol,11(carboxylic_acid) > 0(amine_primary) > 3(alcohol),amine_primary,amine_primary(9.0~11.0); alcohol(15.0~18.0); carboxylic_acid(1.5~5.0)
NC([C@H](O)c1ccccc1)C(O)=O,8.66,0:3:11,amine_primary:alcohol:carboxylic_acid,DL-2-Amino-3-(3-hydroxyphenyl)propanoic acid (m-Tyrosine),[H₂L]/[HL][H],0.15,37.0,11:0:3,carboxylic_acid:amine_primary:alcohol,11(carboxylic_acid) > 0(amine_primary) > 3(alcohol),amine_primary,amine_primary(9.0~11.0); alcohol(15.0~18.0); carboxylic_acid(1.5~5.0)
NC([C@H](O)c1ccccc1)C(O)=O,2.22,0:3:11,amine_primary:alcohol:carboxylic_acid,DL-2-Amino-3-(3-hydroxyphenyl)propanoic acid (m-Tyrosine),[H₃L]/[H₂L][H],0.1,25.0,11:0:3,carboxylic_acid:amine_primary:alcohol,11(carboxylic_acid) > 0(amine_primary) > 3(alcohol),carboxylic_acid,amine_primary(9.0~11.0); alcohol(15.0~18.0); carboxylic_acid(1.5~5.0)
N[C@@H](Cc1ccc(O)cc1)C(O)=O,10.1,0:7:11,amine_primary:phenol:carboxylic_acid,L-2-Amino-3-(4-hydroxyphenyl)propanoic acid (Tyrosine),[HL]/[L][H],0.1,25.0,11:7:0,carboxylic_acid:phenol:amine_primary,11(carboxylic_acid) > 7(phenol) > 0(amine_primary),amine_primary,amine_primary(9.0~11.0); phenol(8.0~11.0); carboxylic_acid(1.5~5.0)
N[C@@H](Cc1ccc(O)cc1)C(O)=O,9.88,0:7:11,amine_primary:phenol:carboxylic_acid,L-2-Amino-3-(4-hydroxyphenyl)propanoic acid (Tyrosine),[HL]/[L][H],0.15,37.0,11:7:0,carboxylic_acid:phenol:amine_primary,11(carboxylic_acid) > 7(phenol) > 0(amine_primary),amine_primary,amine_primary(9.0~11.0); phenol(8.0~11.0); carboxylic_acid(1.5~5.0)
N[C@@H](Cc1ccc(O)cc1)C(O)=O,10.03,0:7:11,amine_primary:phenol:carboxylic_acid,L-2-Amino-3-(4-hydroxyphenyl)propanoic acid (Tyrosine),[HL]/[L][H],0.5,25.0,11:7:0,carboxylic_acid:phenol:amine_primary,11(carboxylic_acid) > 7(phenol) > 0(amine_primary),amine_primary,amine_primary(9.0~11.0); phenol(8.0~11.0); carboxylic_acid(1.5~5.0)
N[C@@H](Cc1ccc(O)cc1)C(O)=O,10.39,0:7:11,amine_primary:phenol:carboxylic_acid,L-2-Amino-3-(4-hydroxyphenyl)propanoic acid (Tyrosine),[HL]/[L][H],3.0,25.0,11:7:0,carboxylic_acid:phenol:amine_primary,11(carboxylic_acid) > 7(phenol) > 0(amine_primary),amine_primary,amine_primary(9.0~11.0); phenol(8.0~11.0); carboxylic_acid(1.5~5.0)
N[C@@H](Cc1ccc(O)cc1)C(O)=O,10.47,0:7:11,amine_primary:phenol:carboxylic_acid,L-2-Amino-3-(4-hydroxyphenyl)propanoic acid (Tyrosine),[HL]/[L][H],0.0,25.0,11:7:0,carboxylic_acid:phenol:amine_primary,11(carboxylic_acid) > 7(phenol) > 0(amine_primary),amine_primary,amine_primary(9.0~11.0); phenol(8.0~11.0); carboxylic_acid(1.5~5.0)
N[C@@H](Cc1ccc(O)cc1)C(O)=O,9.04,0:7:11,amine_primary:phenol:carboxylic_acid,L-2-Amino-3-(4-hydroxyphenyl)propanoic acid (Tyrosine),[H₂L]/[HL][H],0.1,25.0,11:7:0,carboxylic_acid:phenol:amine_primary,11(carboxylic_acid) > 7(phenol) > 0(amine_primary),phenol,amine_primary(9.0~11.0); phenol(8.0~11.0); carboxylic_acid(1.5~5.0)
N[C@@H](Cc1ccc(O)cc1)C(O)=O,8.75,0:7:11,amine_primary:phenol:carboxylic_acid,L-2-Amino-3-(4-hydroxyphenyl)propanoic acid (Tyrosine),[H₂L]/[HL][H],0.15,37.0,11:7:0,carboxylic_acid:phenol:amine_primary,11(carboxylic_acid) > 7(phenol) > 0(amine_primary),phenol,amine_primary(9.0~11.0); phenol(8.0~11.0); carboxylic_acid(1.5~5.0)
N[C@@H](Cc1ccc(O)cc1)C(O)=O,8.98,0:7:11,amine_primary:phenol:carboxylic_acid,L-2-Amino-3-(4-hydroxyphenyl)propanoic acid (Tyrosine),[H₂L]/[HL][H],0.5,25.0,11:7:0,carboxylic_acid:phenol:amine_primary,11(carboxylic_acid) > 7(phenol) > 0(amine_primary),phenol,amine_primary(9.0~11.0); phenol(8.0~11.0); carboxylic_acid(1.5~5.0)
N[C@@H](Cc1ccc(O)cc1)C(O)=O,9.43,0:7:11,amine_primary:phenol:carboxylic_acid,L-2-Amino-3-(4-hydroxyphenyl)propanoic acid (Tyrosine),[H₂L]/[HL][H],3.0,25.0,11:7:0,carboxylic_acid:phenol:amine_primary,11(carboxylic_acid) > 7(phenol) > 0(amine_primary),phenol,amine_primary(9.0~11.0); phenol(8.0~11.0); carboxylic_acid(1.5~5.0)
N[C@@H](Cc1ccc(O)cc1)C(O)=O,9.19,0:7:11,amine_primary:phenol:carboxylic_acid,L-2-Amino-3-(4-hydroxyphenyl)propanoic acid (Tyrosine),[H₂L]/[HL][H],0.0,25.0,11:7:0,carboxylic_acid:phenol:amine_primary,11(carboxylic_acid) > 7(phenol) > 0(amine_primary),phenol,amine_primary(9.0~11.0); phenol(8.0~11.0); carboxylic_acid(1.5~5.0)
N[C@@H](Cc1ccc(O)cc1)C(O)=O,2.24,0:7:11,amine_primary:phenol:carboxylic_acid,L-2-Amino-3-(4-hydroxyphenyl)propanoic acid (Tyrosine),[H₃L]/[H₂L][H],0.1,25.0,11:7:0,carboxylic_acid:phenol:amine_primary,11(carboxylic_acid) > 7(phenol) > 0(amine_primary),carboxylic_acid,amine_primary(9.0~11.0); phenol(8.0~11.0); carboxylic_acid(1.5~5.0)
N[C@@H](Cc1ccc(O)cc1)C(O)=O,2.81,0:7:11,amine_primary:phenol:carboxylic_acid,L-2-Amino-3-(4-hydroxyphenyl)propanoic acid (Tyrosine),[H₃L]/[H₂L][H],3.0,25.0,11:7:0,carboxylic_acid:phenol:amine_primary,11(carboxylic_acid) > 7(phenol) > 0(amine_primary),carboxylic_acid,amine_primary(9.0~11.0); phenol(8.0~11.0); carboxylic_acid(1.5~5.0)
NC(Cc1cc(I)c(O)c(I)c1)C(O)=O,9.1,13:0,carboxylic_acid:amine_primary,"L-2-Amino-3-(4-hydroxy-3,5-diiodophenyl)propanoic acid (L-3,5-Diiodotyrosine)",[HL]/[L][H],0.5,25.0,13:0,carboxylic_acid:amine_primary,13(carboxylic_acid) > 0(amine_primary),amine_primary,carboxylic_acid(1.5~5.0); amine_primary(9.0~11.0)
NC(Cc1cc(I)c(O)c(I)c1)C(O)=O,6.16,13:0,carboxylic_acid:amine_primary,"L-2-Amino-3-(4-hydroxy-3,5-diiodophenyl)propanoic acid (L-3,5-Diiodotyrosine)",[H₂L]/[HL][H],0.5,25.0,13:0,carboxylic_acid:amine_primary,13(carboxylic_acid) > 0(amine_primary),carboxylic_acid,carboxylic_acid(1.5~5.0); amine_primary(9.0~11.0)
N[C@@H](Cc1ccc(O)c(N)c1)C(O)=O,10.19,0:7:9:12,amine_primary:phenol:amine_primary:carboxylic_acid,L-2-Amino-3-(3-amino-4-hydroxyphenyl)propanoic acid (m-Aminotyrosine),[HL]/[L][H],0.1,25.0,12:7:0:9,carboxylic_acid:phenol:amine_primary:amine_primary,12(carboxylic_acid) > 7(phenol) > 0(amine_primary) > 9(amine_primary),amine_primary,amine_primary(9.0~11.0); phenol(8.0~11.0); amine_primary(9.0~11.0); carboxylic_acid(1.5~5.0)
N[C@@H](Cc1ccc(O)c(N)c1)C(O)=O,9.09,0:7:9:12,amine_primary:phenol:amine_primary:carboxylic_acid,L-2-Amino-3-(3-amino-4-hydroxyphenyl)propanoic acid (m-Aminotyrosine),[H₂L]/[HL][H],0.1,25.0,12:7:0:9,carboxylic_acid:phenol:amine_primary:amine_primary,12(carboxylic_acid) > 7(phenol) > 0(amine_primary) > 9(amine_primary),phenol,amine_primary(9.0~11.0); phenol(8.0~11.0); amine_primary(9.0~11.0); carboxylic_acid(1.5~5.0)
N[C@@H](Cc1ccc(O)c(N)c1)C(O)=O,4.48,0:7:9:12,amine_primary:phenol:amine_primary:carboxylic_acid,L-2-Amino-3-(3-amino-4-hydroxyphenyl)propanoic acid (m-Aminotyrosine),[H₃L]/[H₂L][H],0.1,25.0,12:7:0:9,carboxylic_acid:phenol:amine_primary:amine_primary,12(carboxylic_acid) > 7(phenol) > 0(amine_primary) > 9(amine_primary),carboxylic_acid,amine_primary(9.0~11.0); phenol(8.0~11.0); amine_primary(9.0~11.0); carboxylic_acid(1.5~5.0)
N[C@@H](Cc1ccc(O)c(N)c1)C(O)=O,2.0,0:7:9:12,amine_primary:phenol:amine_primary:carboxylic_acid,L-2-Amino-3-(3-amino-4-hydroxyphenyl)propanoic acid (m-Aminotyrosine),[H₄L]/[H₃L][H],0.1,25.0,12:7:0:9,carboxylic_acid:phenol:amine_primary:amine_primary,12(carboxylic_acid) > 7(phenol) > 0(amine_primary) > 9(amine_primary),carboxylic_acid,amine_primary(9.0~11.0); phenol(8.0~11.0); amine_primary(9.0~11.0); carboxylic_acid(1.5~5.0)
N[C@@H](Cc1ccc(O)c(O)c1)C(O)=O,13.4,0:7:9:12,amine_primary:phenol:phenol:carboxylic_acid,"L-2-Amino-3-(3,4-dihydroxyphenyl)propanoic acid (DOPA)",[HL]/[L][H],0.1,25.0,12:7:9:0,carboxylic_acid:phenol:phenol:amine_primary,12(carboxylic_acid) > 7(phenol) > 9(phenol) > 0(amine_primary),amine_primary,amine_primary(9.0~11.0); phenol(8.0~11.0); phenol(8.0~11.0); carboxylic_acid(1.5~5.0)
N[C@@H](Cc1ccc(O)c(O)c1)C(O)=O,13.4,0:7:9:12,amine_primary:phenol:phenol:carboxylic_acid,"L-2-Amino-3-(3,4-dihydroxyphenyl)propanoic acid (DOPA)",[HL]/[L][H],1.0,25.0,12:7:9:0,carboxylic_acid:phenol:phenol:amine_primary,12(carboxylic_acid) > 7(phenol) > 9(phenol) > 0(amine_primary),amine_primary,amine_primary(9.0~11.0); phenol(8.0~11.0); phenol(8.0~11.0); carboxylic_acid(1.5~5.0)
N[C@@H](Cc1ccc(O)c(O)c1)C(O)=O,9.81,0:7:9:12,amine_primary:phenol:phenol:carboxylic_acid,"L-2-Amino-3-(3,4-dihydroxyphenyl)propanoic acid (DOPA)",[H₂L]/[HL][H],0.1,25.0,12:7:9:0,carboxylic_acid:phenol:phenol:amine_primary,12(carboxylic_acid) > 7(phenol) > 9(phenol) > 0(amine_primary),amine_primary,amine_primary(9.0~11.0); phenol(8.0~11.0); phenol(8.0~11.0); carboxylic_acid(1.5~5.0)
N[C@@H](Cc1ccc(O)c(O)c1)C(O)=O,9.7,0:7:9:12,amine_primary:phenol:phenol:carboxylic_acid,"L-2-Amino-3-(3,4-dihydroxyphenyl)propanoic acid (DOPA)",[H₂L]/[HL][H],0.5,25.0,12:7:9:0,carboxylic_acid:phenol:phenol:amine_primary,12(carboxylic_acid) > 7(phenol) > 9(phenol) > 0(amine_primary),phenol,amine_primary(9.0~11.0); phenol(8.0~11.0); phenol(8.0~11.0); carboxylic_acid(1.5~5.0)
N[C@@H](Cc1ccc(O)c(O)c1)C(O)=O,9.87,0:7:9:12,amine_primary:phenol:phenol:carboxylic_acid,"L-2-Amino-3-(3,4-dihydroxyphenyl)propanoic acid (DOPA)",[H₂L]/[HL][H],0.5,20.0,12:7:9:0,carboxylic_acid:phenol:phenol:amine_primary,12(carboxylic_acid) > 7(phenol) > 9(phenol) > 0(amine_primary),amine_primary,amine_primary(9.0~11.0); phenol(8.0~11.0); phenol(8.0~11.0); carboxylic_acid(1.5~5.0)
N[C@@H](Cc1ccc(O)c(O)c1)C(O)=O,9.76,0:7:9:12,amine_primary:phenol:phenol:carboxylic_acid,"L-2-Amino-3-(3,4-dihydroxyphenyl)propanoic acid (DOPA)",[H₂L]/[HL][H],1.0,25.0,12:7:9:0,carboxylic_acid:phenol:phenol:amine_primary,12(carboxylic_acid) > 7(phenol) > 9(phenol) > 0(amine_primary),amine_primary,amine_primary(9.0~11.0); phenol(8.0~11.0); phenol(8.0~11.0); carboxylic_acid(1.5~5.0)
N[C@@H](Cc1ccc(O)c(O)c1)C(O)=O,8.75,0:7:9:12,amine_primary:phenol:phenol:carboxylic_acid,"L-2-Amino-3-(3,4-dihydroxyphenyl)propanoic acid (DOPA)",[H₃L]/[H₂L][H],0.1,25.0,12:7:9:0,carboxylic_acid:phenol:phenol:amine_primary,12(carboxylic_acid) > 7(phenol) > 9(phenol) > 0(amine_primary),phenol,amine_primary(9.0~11.0); phenol(8.0~11.0); phenol(8.0~11.0); carboxylic_acid(1.5~5.0)
N[C@@H](Cc1ccc(O)c(O)c1)C(O)=O,8.7,0:7:9:12,amine_primary:phenol:phenol:carboxylic_acid,"L-2-Amino-3-(3,4-dihydroxyphenyl)propanoic acid (DOPA)",[H₃L]/[H₂L][H],0.5,25.0,12:7:9:0,carboxylic_acid:phenol:phenol:amine_primary,12(carboxylic_acid) > 7(phenol) > 9(phenol) > 0(amine_primary),phenol,amine_primary(9.0~11.0); phenol(8.0~11.0); phenol(8.0~11.0); carboxylic_acid(1.5~5.0)