SMILES,pKa,Dissociable_Atoms,Functional_Group,Name,Equilibrium,Ionic,Temperature,Dissociable_Atoms_Ordered,Functional_Group_Ordered,Dissociation_Order,Dissociating_Group,Functional_Group_pKa_Ranges
NCCCCCc1ccccn1,10.38,11,pyridine_nitrogen,2-(5-Aminopentyl)pyridine,[HL]/[L][H],0.1,25.0,11,pyridine_nitrogen,11(pyridine_nitrogen),Unknown,pyridine_nitrogen(Unknown)
NCCCCCc1ccccn1,5.7,11,pyridine_nitrogen,2-(5-Aminopentyl)pyridine,[H₂L]/[HL][H],0.1,25.0,11,pyridine_nitrogen,11(pyridine_nitrogen),Unknown,pyridine_nitrogen(Unknown)
NCCCCCc1cccnc1,10.34,10,pyridine_nitrogen,3-(5-Aminopentyl)pyridine,[HL]/[L][H],0.1,25.0,10,pyridine_nitrogen,10(pyridine_nitrogen),Unknown,pyridine_nitrogen(Unknown)
NCCCCCc1cccnc1,5.61,10,pyridine_nitrogen,3-(5-Aminopentyl)pyridine,[H₂L]/[HL][H],0.1,25.0,10,pyridine_nitrogen,10(pyridine_nitrogen),Unknown,pyridine_nitrogen(Unknown)
NCCCCCc1ccncc1,10.3,9,pyridine_nitrogen,4-(5-Aminopentyl)pyridine,[HL]/[L][H],0.1,25.0,9,pyridine_nitrogen,9(pyridine_nitrogen),Unknown,pyridine_nitrogen(Unknown)
NCCCCCc1ccncc1,5.99,9,pyridine_nitrogen,4-(5-Aminopentyl)pyridine,[H₂L]/[HL][H],0.1,25.0,9,pyridine_nitrogen,9(pyridine_nitrogen),Unknown,pyridine_nitrogen(Unknown)
Nc1ccc(Br)cn1,4.91,11,heterocyclic_nitrogen,2-Amino-5-bromopyridine,[HL]/[L][H],0.1,25.0,11,heterocyclic_nitrogen,11(heterocyclic_nitrogen),Unknown,heterocyclic_nitrogen(Unknown)
Nc1ncccc1[N+]([O-])=O,2.42,9,n_oxide,2-Amino-3-nitropyridine,[HL]/[L][H],0.0,25.0,9,n_oxide,9(n_oxide),Unknown,n_oxide(Unknown)
Nc1ccc(cn1)[N+]([O-])=O,2.8,11,n_oxide,2-Amino-5-nitropyridine,[HL]/[L][H],0.0,25.0,11,n_oxide,11(n_oxide),Unknown,n_oxide(Unknown)
Nc1cccnc1[N+]([O-])=O,0.0,5,pyridine_nitrogen,3-Amino-2-nitropyridine,[HL]/[L][H],0.0,25.0,5,pyridine_nitrogen,5(pyridine_nitrogen),Unknown,pyridine_nitrogen(Unknown)
Nc1ccncc1[N+]([O-])=O,5.05,4,pyridine_nitrogen,4-Amino-3-nitropyridine,[HL]/[L][H],0.0,25.0,4,pyridine_nitrogen,4(pyridine_nitrogen),Unknown,pyridine_nitrogen(Unknown)
NNc1ccccn1,7.24,7,pyridine_nitrogen,2-Hydrazinopyridine (2-Pyridylhydrazine),[HL]/[L][H],0.1,20.0,7,pyridine_nitrogen,7(pyridine_nitrogen),Unknown,pyridine_nitrogen(Unknown)
Cc1cc(C)c(CN)c(N)n1,9.14,7:9,amine_primary:amine_primary,"2-Amino-3-aminomethyl-4,6-dimethylpyridine",[HL]/[L][H],0.5,25.0,7:9,amine_primary:amine_primary,7(amine_primary) > 9(amine_primary),amine_primary,amine_primary(9.0~11.0); amine_primary(9.0~11.0)
Cc1cc(C)c(CN)c(N)n1,6.6,7:9,amine_primary:amine_primary,"2-Amino-3-aminomethyl-4,6-dimethylpyridine",[H₂L]/[HL][H],0.5,25.0,7:9,amine_primary:amine_primary,7(amine_primary) > 9(amine_primary),amine_primary,amine_primary(9.0~11.0); amine_primary(9.0~11.0)
COCc1cc(C)nc(N)c1CN,8.96,9:12,amine_primary:amine_primary,2-Amino-3-aminomethyl-6-methyl-4-methoxymethylpyridine,[HL]/[L][H],0.5,25.0,9:12,amine_primary:amine_primary,9(amine_primary) > 12(amine_primary),amine_primary,amine_primary(9.0~11.0); amine_primary(9.0~11.0)
COCc1cc(C)nc(N)c1CN,5.78,9:12,amine_primary:amine_primary,2-Amino-3-aminomethyl-6-methyl-4-methoxymethylpyridine,[H₂L]/[HL][H],0.5,25.0,9:12,amine_primary:amine_primary,9(amine_primary) > 12(amine_primary),amine_primary,amine_primary(9.0~11.0); amine_primary(9.0~11.0)
COCc1cc(C)c(CN)c(N)n1,8.96,9:11,amine_primary:amine_primary,2-Amino-3-aminomethyl-4-methyl-6-methoxymethylpyridine,[HL]/[L][H],0.5,25.0,9:11,amine_primary:amine_primary,9(amine_primary) > 11(amine_primary),amine_primary,amine_primary(9.0~11.0); amine_primary(9.0~11.0)
COCc1cc(C)c(CN)c(N)n1,5.41,9:11,amine_primary:amine_primary,2-Amino-3-aminomethyl-4-methyl-6-methoxymethylpyridine,[H₂L]/[HL][H],0.5,25.0,9:11,amine_primary:amine_primary,9(amine_primary) > 11(amine_primary),amine_primary,amine_primary(9.0~11.0); amine_primary(9.0~11.0)
NCc1cccc(CN)n1,9.53,0:8,amine_primary:amine_primary,"2,6-Bis(aminomethyl)pyridine",[HL]/[L][H],1.0,20.0,0:8,amine_primary:amine_primary,0(amine_primary) > 8(amine_primary),amine_primary,amine_primary(9.0~11.0); amine_primary(9.0~11.0)
NCc1cccc(CN)n1,9.15,0:8,amine_primary:amine_primary,"2,6-Bis(aminomethyl)pyridine",[H₂L]/[HL][H],1.0,20.0,0:8,amine_primary:amine_primary,0(amine_primary) > 8(amine_primary),amine_primary,amine_primary(9.0~11.0); amine_primary(9.0~11.0)
NCCc1cccc(CCN)n1,10.34,14,ring_nitrogen,"2,6-Bis(2-aminoethyl)pyridine",[HL]/[L][H],1.0,20.0,14,ring_nitrogen,14(ring_nitrogen),Unknown,ring_nitrogen(Unknown)
NCCc1cccc(CCN)n1,9.71,14,ring_nitrogen,"2,6-Bis(2-aminoethyl)pyridine",[H₂L]/[HL][H],1.0,20.0,14,ring_nitrogen,14(ring_nitrogen),Unknown,ring_nitrogen(Unknown)
NCCc1cccc(CCN)n1,3.43,14,ring_nitrogen,"2,6-Bis(2-aminoethyl)pyridine",[H₃L]/[H₂L][H],1.0,20.0,14,ring_nitrogen,14(ring_nitrogen),Unknown,ring_nitrogen(Unknown)
CNCc1ccccn1,8.91,8,pyridine_nitrogen,2-(Methylaminomethyl)pyridine,[HL]/[L][H],0.1,25.0,8,pyridine_nitrogen,8(pyridine_nitrogen),Unknown,pyridine_nitrogen(Unknown)
CNCc1ccccn1,9.01,8,pyridine_nitrogen,2-(Methylaminomethyl)pyridine,[HL]/[L][H],0.5,25.0,8,pyridine_nitrogen,8(pyridine_nitrogen),Unknown,pyridine_nitrogen(Unknown)
CNCc1ccccn1,8.96,8,pyridine_nitrogen,2-(Methylaminomethyl)pyridine,[HL]/[L][H],0.0,25.0,8,pyridine_nitrogen,8(pyridine_nitrogen),Unknown,pyridine_nitrogen(Unknown)
CNCc1ccccn1,1.91,8,pyridine_nitrogen,2-(Methylaminomethyl)pyridine,[H₂L]/[HL][H],0.5,25.0,8,pyridine_nitrogen,8(pyridine_nitrogen),Unknown,pyridine_nitrogen(Unknown)
CNCc1cccc(C)n1,9.05,12,ring_nitrogen,6-Methyl-2-(methylaminomethyl)pyridine,[HL]/[L][H],0.5,25.0,12,ring_nitrogen,12(ring_nitrogen),Unknown,ring_nitrogen(Unknown)
CNCc1cccc(C)n1,8.82,12,ring_nitrogen,6-Methyl-2-(methylaminomethyl)pyridine,[HL]/[L][H],0.0,25.0,12,ring_nitrogen,12(ring_nitrogen),Unknown,ring_nitrogen(Unknown)
CNCc1cccc(C)n1,2.92,12,ring_nitrogen,6-Methyl-2-(methylaminomethyl)pyridine,[H₂L]/[HL][H],0.5,25.0,12,ring_nitrogen,12(ring_nitrogen),Unknown,ring_nitrogen(Unknown)
CNCCc1ccccn1,9.96,9,pyridine_nitrogen,2-[2-(Methylamino)ethyl]pyridine,[HL]/[L][H],0.5,25.0,9,pyridine_nitrogen,9(pyridine_nitrogen),Unknown,pyridine_nitrogen(Unknown)
CNCCc1ccccn1,4.02,9,pyridine_nitrogen,2-[2-(Methylamino)ethyl]pyridine,[H₂L]/[HL][H],0.5,25.0,9,pyridine_nitrogen,9(pyridine_nitrogen),Unknown,pyridine_nitrogen(Unknown)
OCCNCCc1ccccn1,7.94,0:3,alcohol:amine_secondary,2-[2-(2-Hydroxyethylamino)ethyl]pyridine,[HL]/[L][H],0.1,25.0,3:0,amine_secondary:alcohol,3(amine_secondary) > 0(alcohol),amine_secondary,alcohol(15.0~18.0); amine_secondary(9.5~11.5)
OCCNCCc1ccccn1,3.15,0:3,alcohol:amine_secondary,2-[2-(2-Hydroxyethylamino)ethyl]pyridine,[H₂L]/[HL][H],0.1,25.0,3:0,amine_secondary:alcohol,3(amine_secondary) > 0(alcohol),amine_secondary,alcohol(15.0~18.0); amine_secondary(9.5~11.5)
OCCN(CCO)Cc1ccccn1,6.92,0:6,alcohol:alcohol,Bis(2-hydroxyethyl)aminomethylpyridine,[HL]/[L][H],0.1,25.0,0:6,alcohol:alcohol,0(alcohol) > 6(alcohol),alcohol,alcohol(15.0~18.0); alcohol(15.0~18.0)
OCCN(CCO)Cc1ccccn1,1.2,0:6,alcohol:alcohol,Bis(2-hydroxyethyl)aminomethylpyridine,[H₂L]/[HL][H],0.1,25.0,0:6,alcohol:alcohol,0(alcohol) > 6(alcohol),alcohol,alcohol(15.0~18.0); alcohol(15.0~18.0)
NCCNCc1ccccn1,9.46,10,pyridine_nitrogen,2-(2-Aminoethylaminomethyl)pyridine (N-2-Picolylethylenediamine),[HL]/[L][H],0.1,25.0,10,pyridine_nitrogen,10(pyridine_nitrogen),Unknown,pyridine_nitrogen(Unknown)
NCCNCc1ccccn1,5.91,10,pyridine_nitrogen,2-(2-Aminoethylaminomethyl)pyridine (N-2-Picolylethylenediamine),[H₂L]/[HL][H],0.1,25.0,10,pyridine_nitrogen,10(pyridine_nitrogen),Unknown,pyridine_nitrogen(Unknown)
NCCNCc1ccccn1,2.73,10,pyridine_nitrogen,2-(2-Aminoethylaminomethyl)pyridine (N-2-Picolylethylenediamine),[H₃L]/[H₂L][H],0.1,25.0,10,pyridine_nitrogen,10(pyridine_nitrogen),Unknown,pyridine_nitrogen(Unknown)
CN(C)c1cccnc1,6.52,7,pyridine_nitrogen,3-(Dimethylamino)pyridine,[HL]/[L][H],0.5,25.0,7,pyridine_nitrogen,7(pyridine_nitrogen),Unknown,pyridine_nitrogen(Unknown)
CN(C)c1ccncc1,9.55,6,pyridine_nitrogen,4-(Dimethylamino)pyridine,[HL]/[L][H],0.1,25.0,6,pyridine_nitrogen,6(pyridine_nitrogen),Unknown,pyridine_nitrogen(Unknown)
CN(C)c1ccncc1,1.0,6,pyridine_nitrogen,4-(Dimethylamino)pyridine,[H₂L]/[HL][H],0.1,25.0,6,pyridine_nitrogen,6(pyridine_nitrogen),Unknown,pyridine_nitrogen(Unknown)
CN(C)c1ccc(cc1)N=Nc2ccccn2,4.5,16,pyridine_nitrogen,2-[4-(Dimethylamino)phenylazo]pyridine,[HL]/[L][H],0.1,25.0,16,pyridine_nitrogen,16(pyridine_nitrogen),Unknown,pyridine_nitrogen(Unknown)
CN(C)c1ccc(cc1)N=Nc2ccccn2,2.0,16,pyridine_nitrogen,2-[4-(Dimethylamino)phenylazo]pyridine,[H₂L]/[HL][H],0.1,25.0,16,pyridine_nitrogen,16(pyridine_nitrogen),Unknown,pyridine_nitrogen(Unknown)
c1ccnnc1,2.48,4,pyridine_nitrogen,"1,2-Diazine (Pyridazine)",[HL]/[L][H],0.5,25.0,4,pyridine_nitrogen,4(pyridine_nitrogen),Unknown,pyridine_nitrogen(Unknown)
Cc1cccnn1,3.36,7,ring_nitrogen,"3-Methyl-1,2-diazine (3-Methylpyridazine)",[HL]/[L][H],0.5,25.0,7,ring_nitrogen,7(ring_nitrogen),Unknown,ring_nitrogen(Unknown)
NNc1ccc(nn1)c2ccccc2,5.46,9,ring_nitrogen,"3-Hydrazino-6-phenyl-1,2-diazine",[HL]/[L][H],0.15,37.0,9,ring_nitrogen,9(ring_nitrogen),Unknown,ring_nitrogen(Unknown)
COc1ccccc1c2ccc(NN)nn2,5.4,20,ring_nitrogen,"3-Hydrazino-6-(2-methoxyphenyl)-1,2-diazine",[HL]/[L][H],0.15,37.0,20,ring_nitrogen,20(ring_nitrogen),Unknown,ring_nitrogen(Unknown)
COc1cccc(c1)c2ccc(NN)nn2,5.45,22,ring_nitrogen,"3-Hydrazino-6-(3-methoxyphenyl)-1,2-diazine",[HL]/[L][H],0.15,37.0,22,ring_nitrogen,22(ring_nitrogen),Unknown,ring_nitrogen(Unknown)
COc1ccc(cc1)c2ccc(NN)nn2,5.57,22,ring_nitrogen,"3-Hydrazino-6-(4-methoxyphenyl)-1,2-diazine",[HL]/[L][H],0.15,37.0,22,ring_nitrogen,22(ring_nitrogen),Unknown,ring_nitrogen(Unknown)
CC(C)(C)NCC(O)COc1ccccc1c2ccc(NN)nn2,9.24,21:4,amine_primary:amine_secondary,"3-Hydrazino-6{2-[3-(1,1-dimethylethylamino)-2-hydroxypropoxy]phenyl}-1,2-diazine (Prizidilol)",[HL]/[L][H],0.15,37.0,21:4,amine_primary:amine_secondary,21(amine_primary) > 4(amine_secondary),amine_primary,amine_primary(9.0~11.0); amine_secondary(9.5~11.5)
CC(C)(C)NCC(O)COc1ccccc1c2ccc(NN)nn2,5.15,21:4,amine_primary:amine_secondary,"3-Hydrazino-6{2-[3-(1,1-dimethylethylamino)-2-hydroxypropoxy]phenyl}-1,2-diazine (Prizidilol)",[H₂L]/[HL][H],0.15,37.0,21:4,amine_primary:amine_secondary,21(amine_primary) > 4(amine_secondary),amine_primary,amine_primary(9.0~11.0); amine_secondary(9.5~11.5)
NNc1nncc2ccccc12,6.86,0,amine_primary,"3-Hydrazinobenzo[d]-1,2-diazine (Hydralazine)",[HL]/[L][H],0.15,37.0,0,amine_primary,0(amine_primary),amine_primary,amine_primary(9.0~11.0)
c1cnccn1,0.97,6,heterocyclic_nitrogen,"1,4-Diazine (Pyrazine)",[HL]/[L][H],0.5,25.0,6,heterocyclic_nitrogen,6(heterocyclic_nitrogen),Unknown,heterocyclic_nitrogen(Unknown)
c1ccc2ncccc2c1,4.97,5,pyridine_nitrogen,Benzo[b]pyridine (Quinoline),[HL]/[L][H],0.1,25.0,5,pyridine_nitrogen,5(pyridine_nitrogen),Unknown,pyridine_nitrogen(Unknown)
c1ccc2ncccc2c1,4.81,5,pyridine_nitrogen,Benzo[b]pyridine (Quinoline),[HL]/[L][H],0.0,25.0,5,pyridine_nitrogen,5(pyridine_nitrogen),Unknown,pyridine_nitrogen(Unknown)
Oc1cccc2cccnc12,9.65,0:9,phenol:pyridine_nitrogen,8-Hydroxyquinoline (8-Quinolinol)(Oxine),[HL]/[L][H],0.1,25.0,0:9,phenol:pyridine_nitrogen,0(phenol) > 9(pyridine_nitrogen),phenol,phenol(8.0~11.0); pyridine_nitrogen(Unknown)
Oc1cccc2cccnc12,9.58,0:9,phenol:pyridine_nitrogen,8-Hydroxyquinoline (8-Quinolinol)(Oxine),[HL]/[L][H],0.5,25.0,0:9,phenol:pyridine_nitrogen,0(phenol) > 9(pyridine_nitrogen),phenol,phenol(8.0~11.0); pyridine_nitrogen(Unknown)
Oc1cccc2cccnc12,9.62,0:9,phenol:pyridine_nitrogen,8-Hydroxyquinoline (8-Quinolinol)(Oxine),[HL]/[L][H],1.0,25.0,0:9,phenol:pyridine_nitrogen,0(phenol) > 9(pyridine_nitrogen),phenol,phenol(8.0~11.0); pyridine_nitrogen(Unknown)
Oc1cccc2cccnc12,9.65,0:9,phenol:pyridine_nitrogen,8-Hydroxyquinoline (8-Quinolinol)(Oxine),[HL]/[L][H],2.0,25.0,0:9,phenol:pyridine_nitrogen,0(phenol) > 9(pyridine_nitrogen),phenol,phenol(8.0~11.0); pyridine_nitrogen(Unknown)
Oc1cccc2cccnc12,9.74,0:9,phenol:pyridine_nitrogen,8-Hydroxyquinoline (8-Quinolinol)(Oxine),[HL]/[L][H],3.0,25.0,0:9,phenol:pyridine_nitrogen,0(phenol) > 9(pyridine_nitrogen),phenol,phenol(8.0~11.0); pyridine_nitrogen(Unknown)
Oc1cccc2cccnc12,10.0,0:9,phenol:pyridine_nitrogen,8-Hydroxyquinoline (8-Quinolinol)(Oxine),[HL]/[L][H],5.0,25.0,0:9,phenol:pyridine_nitrogen,0(phenol) > 9(pyridine_nitrogen),phenol,phenol(8.0~11.0); pyridine_nitrogen(Unknown)
Oc1cccc2cccnc12,9.82,0:9,phenol:pyridine_nitrogen,8-Hydroxyquinoline (8-Quinolinol)(Oxine),[HL]/[L][H],0.0,25.0,0:9,phenol:pyridine_nitrogen,0(phenol) > 9(pyridine_nitrogen),phenol,phenol(8.0~11.0); pyridine_nitrogen(Unknown)
Oc1cccc2cccnc12,4.97,0:9,phenol:pyridine_nitrogen,8-Hydroxyquinoline (8-Quinolinol)(Oxine),[H₂L]/[HL][H],0.1,25.0,0:9,phenol:pyridine_nitrogen,0(phenol) > 9(pyridine_nitrogen),phenol,phenol(8.0~11.0); pyridine_nitrogen(Unknown)
Oc1cccc2cccnc12,5.02,0:9,phenol:pyridine_nitrogen,8-Hydroxyquinoline (8-Quinolinol)(Oxine),[H₂L]/[HL][H],0.5,25.0,0:9,phenol:pyridine_nitrogen,0(phenol) > 9(pyridine_nitrogen),phenol,phenol(8.0~11.0); pyridine_nitrogen(Unknown)
Oc1cccc2cccnc12,5.1,0:9,phenol:pyridine_nitrogen,8-Hydroxyquinoline (8-Quinolinol)(Oxine),[H₂L]/[HL][H],1.0,25.0,0:9,phenol:pyridine_nitrogen,0(phenol) > 9(pyridine_nitrogen),phenol,phenol(8.0~11.0); pyridine_nitrogen(Unknown)
Oc1cccc2cccnc12,5.26,0:9,phenol:pyridine_nitrogen,8-Hydroxyquinoline (8-Quinolinol)(Oxine),[H₂L]/[HL][H],2.0,25.0,0:9,phenol:pyridine_nitrogen,0(phenol) > 9(pyridine_nitrogen),phenol,phenol(8.0~11.0); pyridine_nitrogen(Unknown)
Oc1cccc2cccnc12,5.4,0:9,phenol:pyridine_nitrogen,8-Hydroxyquinoline (8-Quinolinol)(Oxine),[H₂L]/[HL][H],3.0,25.0,0:9,phenol:pyridine_nitrogen,0(phenol) > 9(pyridine_nitrogen),phenol,phenol(8.0~11.0); pyridine_nitrogen(Unknown)
Oc1cccc2cccnc12,5.82,0:9,phenol:pyridine_nitrogen,8-Hydroxyquinoline (8-Quinolinol)(Oxine),[H₂L]/[HL][H],5.0,25.0,0:9,phenol:pyridine_nitrogen,0(phenol) > 9(pyridine_nitrogen),phenol,phenol(8.0~11.0); pyridine_nitrogen(Unknown)
Oc1cccc2cccnc12,4.94,0:9,phenol:pyridine_nitrogen,8-Hydroxyquinoline (8-Quinolinol)(Oxine),[H₂L]/[HL][H],0.0,25.0,0:9,phenol:pyridine_nitrogen,0(phenol) > 9(pyridine_nitrogen),phenol,phenol(8.0~11.0); pyridine_nitrogen(Unknown)
Cc1ccc2cccc(O)c2n1,10.04,16,ring_nitrogen,8-Hydroxy-2-methylquinoline,[HL]/[L][H],0.1,25.0,16,ring_nitrogen,16(ring_nitrogen),Unknown,ring_nitrogen(Unknown)
Cc1ccc2cccc(O)c2n1,9.96,16,ring_nitrogen,8-Hydroxy-2-methylquinoline,[HL]/[L][H],0.5,25.0,16,ring_nitrogen,16(ring_nitrogen),Unknown,ring_nitrogen(Unknown)
Cc1ccc2cccc(O)c2n1,9.94,16,ring_nitrogen,8-Hydroxy-2-methylquinoline,[HL]/[L][H],1.0,25.0,16,ring_nitrogen,16(ring_nitrogen),Unknown,ring_nitrogen(Unknown)
Cc1ccc2cccc(O)c2n1,9.89,16,ring_nitrogen,8-Hydroxy-2-methylquinoline,[HL]/[L][H],2.0,25.0,16,ring_nitrogen,16(ring_nitrogen),Unknown,ring_nitrogen(Unknown)
Cc1ccc2cccc(O)c2n1,10.16,16,ring_nitrogen,8-Hydroxy-2-methylquinoline,[HL]/[L][H],0.0,25.0,16,ring_nitrogen,16(ring_nitrogen),Unknown,ring_nitrogen(Unknown)
Cc1ccc2cccc(O)c2n1,5.65,16,ring_nitrogen,8-Hydroxy-2-methylquinoline,[H₂L]/[HL][H],0.1,25.0,16,ring_nitrogen,16(ring_nitrogen),Unknown,ring_nitrogen(Unknown)
Cc1ccc2cccc(O)c2n1,5.7,16,ring_nitrogen,8-Hydroxy-2-methylquinoline,[H₂L]/[HL][H],0.5,25.0,16,ring_nitrogen,16(ring_nitrogen),Unknown,ring_nitrogen(Unknown)
Cc1ccc2cccc(O)c2n1,5.87,16,ring_nitrogen,8-Hydroxy-2-methylquinoline,[HL]/[L][H],1.0,25.0,16,ring_nitrogen,16(ring_nitrogen),Unknown,ring_nitrogen(Unknown)
Cc1ccc2cccc(O)c2n1,5.98,16,ring_nitrogen,8-Hydroxy-2-methylquinoline,[HL]/[L][H],2.0,25.0,16,ring_nitrogen,16(ring_nitrogen),Unknown,ring_nitrogen(Unknown)
Cc1ccc2cccc(O)c2n1,5.61,16,ring_nitrogen,8-Hydroxy-2-methylquinoline,[H₂L]/[HL][H],0.0,25.0,16,ring_nitrogen,16(ring_nitrogen),Unknown,ring_nitrogen(Unknown)
Oc1c(Br)cc(Br)c2cccnc12,7.3,0:10,phenol:pyridine_nitrogen,"5,7-Dibromo-8-hydroxyquinoline",[HL]/[L][H],0.1,25.0,0:10,phenol:pyridine_nitrogen,0(phenol) > 10(pyridine_nitrogen),phenol,phenol(8.0~11.0); pyridine_nitrogen(Unknown)
Oc1c(Br)cc(Br)c2cccnc12,2.6,0:10,phenol:pyridine_nitrogen,"5,7-Dibromo-8-hydroxyquinoline",[H₂L]/[HL][H],0.1,25.0,0:10,phenol:pyridine_nitrogen,0(phenol) > 10(pyridine_nitrogen),phenol,phenol(8.0~11.0); pyridine_nitrogen(Unknown)
Oc1c(I)cc(I)c2cccnc12,8.0,0:10,phenol:pyridine_nitrogen,"5,7-Diiodo-8-hydroxyquinoline",[HL]/[L][H],0.1,25.0,0:10,phenol:pyridine_nitrogen,0(phenol) > 10(pyridine_nitrogen),phenol,phenol(8.0~11.0); pyridine_nitrogen(Unknown)
Oc1c(I)cc(I)c2cccnc12,2.7,0:10,phenol:pyridine_nitrogen,"5,7-Diiodo-8-hydroxyquinoline",[H₂L]/[HL][H],0.1,25.0,0:10,phenol:pyridine_nitrogen,0(phenol) > 10(pyridine_nitrogen),phenol,phenol(8.0~11.0); pyridine_nitrogen(Unknown)
Oc1ccc(c2cccnc12)[N+]([O-])=O,6.36,9,pyridine_nitrogen,8-Hydroxy-5-nitroquinoline,[HL]/[L][H],0.0,25.0,9,pyridine_nitrogen,9(pyridine_nitrogen),Unknown,pyridine_nitrogen(Unknown)
Oc1ccc(c2cccnc12)[N+]([O-])=O,2.51,9,pyridine_nitrogen,8-Hydroxy-5-nitroquinoline,[H₂L]/[HL][H],0.0,25.0,9,pyridine_nitrogen,9(pyridine_nitrogen),Unknown,pyridine_nitrogen(Unknown)
Oc1ccc(c2cccnc12)[S](O)(=O)=O,8.37,0:12,phenol:alcohol,8-Hydroxyquinoline-5-sulfonic acid (Sulfoxine),[HL]/[L][H],0.1,25.0,0:12,phenol:alcohol,0(phenol) > 12(alcohol),phenol,phenol(8.0~11.0); alcohol(15.0~18.0)
Oc1ccc(c2cccnc12)[S](O)(=O)=O,8.18,0:12,phenol:alcohol,8-Hydroxyquinoline-5-sulfonic acid (Sulfoxine),[HL]/[L][H],0.5,25.0,0:12,phenol:alcohol,0(phenol) > 12(alcohol),phenol,phenol(8.0~11.0); alcohol(15.0~18.0)
Oc1ccc(c2cccnc12)[S](O)(=O)=O,8.15,0:12,phenol:alcohol,8-Hydroxyquinoline-5-sulfonic acid (Sulfoxine),[HL]/[L][H],1.0,25.0,0:12,phenol:alcohol,0(phenol) > 12(alcohol),phenol,phenol(8.0~11.0); alcohol(15.0~18.0)
Oc1ccc(c2cccnc12)[S](O)(=O)=O,8.16,0:12,phenol:alcohol,8-Hydroxyquinoline-5-sulfonic acid (Sulfoxine),[HL]/[L][H],2.0,25.0,0:12,phenol:alcohol,0(phenol) > 12(alcohol),phenol,phenol(8.0~11.0); alcohol(15.0~18.0)
Oc1ccc(c2cccnc12)[S](O)(=O)=O,8.78,0:12,phenol:alcohol,8-Hydroxyquinoline-5-sulfonic acid (Sulfoxine),[HL]/[L][H],0.0,25.0,0:12,phenol:alcohol,0(phenol) > 12(alcohol),phenol,phenol(8.0~11.0); alcohol(15.0~18.0)
Oc1ccc(c2cccnc12)[S](O)(=O)=O,3.9,0:12,phenol:alcohol,8-Hydroxyquinoline-5-sulfonic acid (Sulfoxine),[H₂L]/[HL][H],0.1,25.0,0:12,phenol:alcohol,0(phenol) > 12(alcohol),phenol,phenol(8.0~11.0); alcohol(15.0~18.0)
Oc1ccc(c2cccnc12)[S](O)(=O)=O,3.86,0:12,phenol:alcohol,8-Hydroxyquinoline-5-sulfonic acid (Sulfoxine),[H₂L]/[HL][H],0.5,25.0,0:12,phenol:alcohol,0(phenol) > 12(alcohol),phenol,phenol(8.0~11.0); alcohol(15.0~18.0)
Oc1ccc(c2cccnc12)[S](O)(=O)=O,3.94,0:12,phenol:alcohol,8-Hydroxyquinoline-5-sulfonic acid (Sulfoxine),[H₂L]/[HL][H],1.0,25.0,0:12,phenol:alcohol,0(phenol) > 12(alcohol),phenol,phenol(8.0~11.0); alcohol(15.0~18.0)
Oc1ccc(c2cccnc12)[S](O)(=O)=O,4.15,0:12,phenol:alcohol,8-Hydroxyquinoline-5-sulfonic acid (Sulfoxine),[H₂L]/[HL][H],2.0,25.0,0:12,phenol:alcohol,0(phenol) > 12(alcohol),phenol,phenol(8.0~11.0); alcohol(15.0~18.0)
Oc1ccc(c2cccnc12)[S](O)(=O)=O,4.1,0:12,phenol:alcohol,8-Hydroxyquinoline-5-sulfonic acid (Sulfoxine),[H₂L]/[HL][H],0.0,25.0,0:12,phenol:alcohol,0(phenol) > 12(alcohol),phenol,phenol(8.0~11.0); alcohol(15.0~18.0)
Cc1ccc2c(ccc(O)c2n1)[S](O)(=O)=O,8.72,9:13,phenol:alcohol,8-Hydroxy-2-methylquinoline-5-sulfonic acid,[HL]/[L][H],0.5,25.0,9:13,phenol:alcohol,9(phenol) > 13(alcohol),phenol,phenol(8.0~11.0); alcohol(15.0~18.0)
Cc1ccc2c(ccc(O)c2n1)[S](O)(=O)=O,4.63,9:13,phenol:alcohol,8-Hydroxy-2-methylquinoline-5-sulfonic acid,[H₂L]/[HL][H],0.5,25.0,9:13,phenol:alcohol,9(phenol) > 13(alcohol),phenol,phenol(8.0~11.0); alcohol(15.0~18.0)
Oc1c(cc(c2cccnc12)[S](O)(=O)=O)N=O,5.52,0:12,phenol:alcohol,8-Hydroxy-7-nitrosoquinoline-5-sulfonic acid,[HL]/[L][H],0.1,25.0,0:12,phenol:alcohol,0(phenol) > 12(alcohol),phenol,phenol(8.0~11.0); alcohol(15.0~18.0)
Oc1c(cc(c2cccnc12)[S](O)(=O)=O)N=O,1.81,0:12,phenol:alcohol,8-Hydroxy-7-nitrosoquinoline-5-sulfonic acid,[H₂L]/[HL][H],0.1,25.0,0:12,phenol:alcohol,0(phenol) > 12(alcohol),phenol,phenol(8.0~11.0); alcohol(15.0~18.0)