SMILES,pKa,Dissociable_Atoms,Functional_Group,Name,Dissociable_Atoms_Ordered,Functional_Group_Ordered,Dissociation_Order
SCCS,9.0,0:3,thiol:thiol,"Ethane-1,2-dithiol",0:3,thiol:thiol,0(thiol) > 3(thiol)
Cc1ccc(S)c(S)c1,11.0,5:7,thiol:thiol,"4-Methylbenzene-1,2-dithiol (Toluene-3,4-dithiol)",5:7,thiol:thiol,5(thiol) > 7(thiol)
Cc1ccc(S)c(S)c1,5.34,5:7,thiol:thiol,"4-Methylbenzene-1,2-dithiol (Toluene-3,4-dithiol)",5:7,thiol:thiol,5(thiol) > 7(thiol)
OCC(S)CS,10.65,0:3,alcohol:thiol,"2,3-Dimercaptopropanol (BAL)",3:0,thiol:alcohol,3(thiol) > 0(alcohol)
OCC(S)CS,10.7,0:3,alcohol:thiol,"2,3-Dimercaptopropanol (BAL)",3:0,thiol:alcohol,3(thiol) > 0(alcohol)
OCC(S)CS,10.61,0:3,alcohol:thiol,"2,3-Dimercaptopropanol (BAL)",3:0,thiol:alcohol,3(thiol) > 0(alcohol)
OCC(S)CS,8.63,0:3,alcohol:thiol,"2,3-Dimercaptopropanol (BAL)",3:0,thiol:alcohol,3(thiol) > 0(alcohol)
OCC(S)CS,8.68,0:3,alcohol:thiol,"2,3-Dimercaptopropanol (BAL)",3:0,thiol:alcohol,3(thiol) > 0(alcohol)
OCC(S)CS,8.58,0:3,alcohol:thiol,"2,3-Dimercaptopropanol (BAL)",3:0,thiol:alcohol,3(thiol) > 0(alcohol)
OCC(S)CS,8.42,0:3,alcohol:thiol,"2,3-Dimercaptopropanol (BAL)",3:0,thiol:alcohol,3(thiol) > 0(alcohol)
O[C@H](CS)[C@H](O)CS,10.06,0:5,alcohol:alcohol,"DL-threo-1,4-Dimercaptobutane-2,3-diol (Dithiothreitol)",0:5,alcohol:alcohol,0(alcohol) > 5(alcohol)
O[C@H](CS)[C@H](O)CS,9.81,0:5,alcohol:alcohol,"DL-threo-1,4-Dimercaptobutane-2,3-diol (Dithiothreitol)",0:5,alcohol:alcohol,0(alcohol) > 5(alcohol)
O[C@H](CS)[C@H](O)CS,9.94,0:5,alcohol:alcohol,"DL-threo-1,4-Dimercaptobutane-2,3-diol (Dithiothreitol)",0:5,alcohol:alcohol,0(alcohol) > 5(alcohol)
O[C@H](CS)[C@H](O)CS,9.05,0:5,alcohol:alcohol,"DL-threo-1,4-Dimercaptobutane-2,3-diol (Dithiothreitol)",0:5,alcohol:alcohol,0(alcohol) > 5(alcohol)
O[C@H](CS)[C@H](O)CS,8.86,0:5,alcohol:alcohol,"DL-threo-1,4-Dimercaptobutane-2,3-diol (Dithiothreitol)",0:5,alcohol:alcohol,0(alcohol) > 5(alcohol)
O[C@H](CS)[C@H](O)CS,9.14,0:5,alcohol:alcohol,"DL-threo-1,4-Dimercaptobutane-2,3-diol (Dithiothreitol)",0:5,alcohol:alcohol,0(alcohol) > 5(alcohol)
O[C@@H](CS)[C@H](O)CS,9.99,0:5,alcohol:alcohol,"erythro-1,4-Dimercaptobutane-2,3-diol (Dithioerythritol)",0:5,alcohol:alcohol,0(alcohol) > 5(alcohol)
O[C@@H](CS)[C@H](O)CS,9.94,0:5,alcohol:alcohol,"erythro-1,4-Dimercaptobutane-2,3-diol (Dithioerythritol)",0:5,alcohol:alcohol,0(alcohol) > 5(alcohol)
O[C@@H](CS)[C@H](O)CS,9.21,0:5,alcohol:alcohol,"erythro-1,4-Dimercaptobutane-2,3-diol (Dithioerythritol)",0:5,alcohol:alcohol,0(alcohol) > 5(alcohol)
O[C@@H](CS)[C@H](O)CS,9.14,0:5,alcohol:alcohol,"erythro-1,4-Dimercaptobutane-2,3-diol (Dithioerythritol)",0:5,alcohol:alcohol,0(alcohol) > 5(alcohol)
CC(=O)N(O)CCCC1NC(=O)C(CCCN(O)C(C)=O)NC1=O,9.44,6:26,tertiary_amine:tertiary_amine,Rhodotorulic acid,6:26,tertiary_amine:tertiary_amine,6(tertiary_amine) > 26(tertiary_amine)
CC(=O)N(O)CCCC1NC(=O)C(CCCN(O)C(C)=O)NC1=O,8.49,6:26,tertiary_amine:tertiary_amine,Rhodotorulic acid,6:26,tertiary_amine:tertiary_amine,6(tertiary_amine) > 26(tertiary_amine)
NNC(=O)NN,4.14,0:5,amine_primary:amine_primary,Carbohydrazide,0:5,amine_primary:amine_primary,0(amine_primary) > 5(amine_primary)
NNC(=O)NN,2.09,0:5,amine_primary:amine_primary,Carbohydrazide,0:5,amine_primary:amine_primary,0(amine_primary) > 5(amine_primary)
NNC(=S)NN,3.13,0:5,amine_primary:amine_primary,Thiocarbohydrazide,0:5,amine_primary:amine_primary,0(amine_primary) > 5(amine_primary)
NNC(=S)NN,3.16,0:5,amine_primary:amine_primary,Thiocarbohydrazide,0:5,amine_primary:amine_primary,0(amine_primary) > 5(amine_primary)
NNC(=S)NN,3.21,0:5,amine_primary:amine_primary,Thiocarbohydrazide,0:5,amine_primary:amine_primary,0(amine_primary) > 5(amine_primary)
NNC(=S)NN,3.39,0:5,amine_primary:amine_primary,Thiocarbohydrazide,0:5,amine_primary:amine_primary,0(amine_primary) > 5(amine_primary)
NNC(=S)NN,0.8,0:5,amine_primary:amine_primary,Thiocarbohydrazide,0:5,amine_primary:amine_primary,0(amine_primary) > 5(amine_primary)
NNC(=S)NN,1.0,0:5,amine_primary:amine_primary,Thiocarbohydrazide,0:5,amine_primary:amine_primary,0(amine_primary) > 5(amine_primary)
NC(=S)C(N)=S,13.1,0:4,amine_primary:amine_primary,Dithiooxamide,0:4,amine_primary:amine_primary,0(amine_primary) > 4(amine_primary)
NC(=S)C(N)=S,10.84,0:4,amine_primary:amine_primary,Dithiooxamide,0:4,amine_primary:amine_primary,0(amine_primary) > 4(amine_primary)
NC(=S)C(N)=S,10.78,0:4,amine_primary:amine_primary,Dithiooxamide,0:4,amine_primary:amine_primary,0(amine_primary) > 4(amine_primary)
NC(=S)C(N)=S,10.77,0:4,amine_primary:amine_primary,Dithiooxamide,0:4,amine_primary:amine_primary,0(amine_primary) > 4(amine_primary)
NC(=S)C(N)=S,11.05,0:4,amine_primary:amine_primary,Dithiooxamide,0:4,amine_primary:amine_primary,0(amine_primary) > 4(amine_primary)
CNC(=S)C(N)=S,13.8,1:5,amine_secondary:amine_primary,N-Methyldithiooxamide,5:1,amine_primary:amine_secondary,5(amine_primary) > 1(amine_secondary)
CNC(=S)C(N)=S,11.09,1:5,amine_secondary:amine_primary,N-Methyldithiooxamide,5:1,amine_primary:amine_secondary,5(amine_primary) > 1(amine_secondary)
CNC(=S)C(N)=S,11.03,1:5,amine_secondary:amine_primary,N-Methyldithiooxamide,5:1,amine_primary:amine_secondary,5(amine_primary) > 1(amine_secondary)
CNC(=S)C(N)=S,11.3,1:5,amine_secondary:amine_primary,N-Methyldithiooxamide,5:1,amine_primary:amine_secondary,5(amine_primary) > 1(amine_secondary)
CNC(=S)C(=S)NC,14.2,1:6,amine_secondary:amine_secondary,"N,N'-Dimethyldithiooxamide",1:6,amine_secondary:amine_secondary,1(amine_secondary) > 6(amine_secondary)
CNC(=S)C(=S)NC,11.67,1:6,amine_secondary:amine_secondary,"N,N'-Dimethyldithiooxamide",1:6,amine_secondary:amine_secondary,1(amine_secondary) > 6(amine_secondary)
O[S](=O)(=O)CCNC(=S)C(=S)NCC[S](O)(=O)=O,11.1,6:11,amine_secondary:amine_secondary,"N,N'-Bis(2-sulfoethyl)dithiooxamide",6:11,amine_secondary:amine_secondary,6(amine_secondary) > 11(amine_secondary)
O[S](=O)(=O)CCNC(=S)C(=S)NCC[S](O)(=O)=O,10.5,6:11,amine_secondary:amine_secondary,"N,N'-Bis(2-sulfoethyl)dithiooxamide",6:11,amine_secondary:amine_secondary,6(amine_secondary) > 11(amine_secondary)
O[S](=O)(=O)CCNC(=S)C(=S)NCC[S](O)(=O)=O,11.73,6:11,amine_secondary:amine_secondary,"N,N'-Bis(2-sulfoethyl)dithiooxamide",6:11,amine_secondary:amine_secondary,6(amine_secondary) > 11(amine_secondary)
O[S](=O)(=O)CCNC(=S)C(=S)NCC[S](O)(=O)=O,2.55,6:11,amine_secondary:amine_secondary,"N,N'-Bis(2-sulfoethyl)dithiooxamide",6:11,amine_secondary:amine_secondary,6(amine_secondary) > 11(amine_secondary)
NC(=N)NC(N)=N,13.0,0:5,amine_primary:amine_primary,Biguanide,0:5,amine_primary:amine_primary,0(amine_primary) > 5(amine_primary)
NC(=N)NC(N)=N,3.01,0:5,amine_primary:amine_primary,Biguanide,0:5,amine_primary:amine_primary,0(amine_primary) > 5(amine_primary)
[H+].[Cl-].CN(C)C(=N)N=C(N)N,12.4,9:10,amine_primary:amine_primary,"1,1-Dimethylbiguanide (Metformin)",9:10,amine_primary:amine_primary,9(amine_primary) > 10(amine_primary)
[H+].[Cl-].CN(C)C(=N)N=C(N)N,2.96,9:10,amine_primary:amine_primary,"1,1-Dimethylbiguanide (Metformin)",9:10,amine_primary:amine_primary,9(amine_primary) > 10(amine_primary)
[H+].[Cl-].CN(C)C(=N)N=C(N)N,3.24,9:10,amine_primary:amine_primary,"1,1-Dimethylbiguanide (Metformin)",9:10,amine_primary:amine_primary,9(amine_primary) > 10(amine_primary)
O[V](O)(O)=O,13.5,0:2,alcohol:alcohol,Hydrogen vanadate (Vanadic acid),0:2,alcohol:alcohol,0(alcohol) > 2(alcohol)
O[V](O)(O)=O,13.3,0:2,alcohol:alcohol,Hydrogen vanadate (Vanadic acid),0:2,alcohol:alcohol,0(alcohol) > 2(alcohol)
O[V](O)(O)=O,13.4,0:2,alcohol:alcohol,Hydrogen vanadate (Vanadic acid),0:2,alcohol:alcohol,0(alcohol) > 2(alcohol)
O[V](O)(O)=O,13.2,0:2,alcohol:alcohol,Hydrogen vanadate (Vanadic acid),0:2,alcohol:alcohol,0(alcohol) > 2(alcohol)
O[V](O)(O)=O,13.1,0:2,alcohol:alcohol,Hydrogen vanadate (Vanadic acid),0:2,alcohol:alcohol,0(alcohol) > 2(alcohol)
O[V](O)(O)=O,14.3,0:2,alcohol:alcohol,Hydrogen vanadate (Vanadic acid),0:2,alcohol:alcohol,0(alcohol) > 2(alcohol)
O[V](O)(O)=O,8.23,0:2,alcohol:alcohol,Hydrogen vanadate (Vanadic acid),0:2,alcohol:alcohol,0(alcohol) > 2(alcohol)
O[V](O)(O)=O,8.31,0:2,alcohol:alcohol,Hydrogen vanadate (Vanadic acid),0:2,alcohol:alcohol,0(alcohol) > 2(alcohol)
O[V](O)(O)=O,7.89,0:2,alcohol:alcohol,Hydrogen vanadate (Vanadic acid),0:2,alcohol:alcohol,0(alcohol) > 2(alcohol)
O[V](O)(O)=O,7.88,0:2,alcohol:alcohol,Hydrogen vanadate (Vanadic acid),0:2,alcohol:alcohol,0(alcohol) > 2(alcohol)
O[V](O)(O)=O,7.85,0:2,alcohol:alcohol,Hydrogen vanadate (Vanadic acid),0:2,alcohol:alcohol,0(alcohol) > 2(alcohol)
O[V](O)(O)=O,8.04,0:2,alcohol:alcohol,Hydrogen vanadate (Vanadic acid),0:2,alcohol:alcohol,0(alcohol) > 2(alcohol)
O[V](O)(O)=O,7.84,0:2,alcohol:alcohol,Hydrogen vanadate (Vanadic acid),0:2,alcohol:alcohol,0(alcohol) > 2(alcohol)
O[V](O)(O)=O,8.0,0:2,alcohol:alcohol,Hydrogen vanadate (Vanadic acid),0:2,alcohol:alcohol,0(alcohol) > 2(alcohol)
O[V](O)(O)=O,8.55,0:2,alcohol:alcohol,Hydrogen vanadate (Vanadic acid),0:2,alcohol:alcohol,0(alcohol) > 2(alcohol)
O[Cr](O)(=O)=O,6.05,0:2,alcohol:alcohol,Hydrogen chromate (Chromic acid),0:2,alcohol:alcohol,0(alcohol) > 2(alcohol)
O[Cr](O)(=O)=O,5.81,0:2,alcohol:alcohol,Hydrogen chromate (Chromic acid),0:2,alcohol:alcohol,0(alcohol) > 2(alcohol)
O[Cr](O)(=O)=O,5.73,0:2,alcohol:alcohol,Hydrogen chromate (Chromic acid),0:2,alcohol:alcohol,0(alcohol) > 2(alcohol)
O[Cr](O)(=O)=O,5.68,0:2,alcohol:alcohol,Hydrogen chromate (Chromic acid),0:2,alcohol:alcohol,0(alcohol) > 2(alcohol)
O[Cr](O)(=O)=O,5.91,0:2,alcohol:alcohol,Hydrogen chromate (Chromic acid),0:2,alcohol:alcohol,0(alcohol) > 2(alcohol)
O[Cr](O)(=O)=O,6.51,0:2,alcohol:alcohol,Hydrogen chromate (Chromic acid),0:2,alcohol:alcohol,0(alcohol) > 2(alcohol)
O[Cr](O)(=O)=O,0.6,0:2,alcohol:alcohol,Hydrogen chromate (Chromic acid),0:2,alcohol:alcohol,0(alcohol) > 2(alcohol)
O[Cr](O)(=O)=O,0.7,0:2,alcohol:alcohol,Hydrogen chromate (Chromic acid),0:2,alcohol:alcohol,0(alcohol) > 2(alcohol)
O[Cr](O)(=O)=O,0.2,0:2,alcohol:alcohol,Hydrogen chromate (Chromic acid),0:2,alcohol:alcohol,0(alcohol) > 2(alcohol)
O[Mo](O)(=O)=O,3.78,0:2,alcohol:alcohol,Hydrogen molybdate (Molybdic acid),0:2,alcohol:alcohol,0(alcohol) > 2(alcohol)
O[Mo](O)(=O)=O,3.39,0:2,alcohol:alcohol,Hydrogen molybdate (Molybdic acid),0:2,alcohol:alcohol,0(alcohol) > 2(alcohol)
O[Mo](O)(=O)=O,3.52,0:2,alcohol:alcohol,Hydrogen molybdate (Molybdic acid),0:2,alcohol:alcohol,0(alcohol) > 2(alcohol)
O[Mo](O)(=O)=O,3.89,0:2,alcohol:alcohol,Hydrogen molybdate (Molybdic acid),0:2,alcohol:alcohol,0(alcohol) > 2(alcohol)
O[Mo](O)(=O)=O,4.24,0:2,alcohol:alcohol,Hydrogen molybdate (Molybdic acid),0:2,alcohol:alcohol,0(alcohol) > 2(alcohol)
O[Mo](O)(=O)=O,3.77,0:2,alcohol:alcohol,Hydrogen molybdate (Molybdic acid),0:2,alcohol:alcohol,0(alcohol) > 2(alcohol)
O[Mo](O)(=O)=O,3.96,0:2,alcohol:alcohol,Hydrogen molybdate (Molybdic acid),0:2,alcohol:alcohol,0(alcohol) > 2(alcohol)
O[Mo](O)(=O)=O,3.7,0:2,alcohol:alcohol,Hydrogen molybdate (Molybdic acid),0:2,alcohol:alcohol,0(alcohol) > 2(alcohol)
O[Mo](O)(=O)=O,3.61,0:2,alcohol:alcohol,Hydrogen molybdate (Molybdic acid),0:2,alcohol:alcohol,0(alcohol) > 2(alcohol)
O[Mo](O)(=O)=O,4.0,0:2,alcohol:alcohol,Hydrogen molybdate (Molybdic acid),0:2,alcohol:alcohol,0(alcohol) > 2(alcohol)
OC(O)=O,9.91,0:2,carboxylic_acid:carboxylic_acid,Hydrogen carbonate (Carbonic acid),0:2,carboxylic_acid:carboxylic_acid,0(carboxylic_acid) > 2(carboxylic_acid)
OC(O)=O,9.61,0:2,carboxylic_acid:carboxylic_acid,Hydrogen carbonate (Carbonic acid),0:2,carboxylic_acid:carboxylic_acid,0(carboxylic_acid) > 2(carboxylic_acid)
OC(O)=O,9.73,0:2,carboxylic_acid:carboxylic_acid,Hydrogen carbonate (Carbonic acid),0:2,carboxylic_acid:carboxylic_acid,0(carboxylic_acid) > 2(carboxylic_acid)
OC(O)=O,9.54,0:2,carboxylic_acid:carboxylic_acid,Hydrogen carbonate (Carbonic acid),0:2,carboxylic_acid:carboxylic_acid,0(carboxylic_acid) > 2(carboxylic_acid)
OC(O)=O,9.51,0:2,carboxylic_acid:carboxylic_acid,Hydrogen carbonate (Carbonic acid),0:2,carboxylic_acid:carboxylic_acid,0(carboxylic_acid) > 2(carboxylic_acid)
OC(O)=O,9.7,0:2,carboxylic_acid:carboxylic_acid,Hydrogen carbonate (Carbonic acid),0:2,carboxylic_acid:carboxylic_acid,0(carboxylic_acid) > 2(carboxylic_acid)
OC(O)=O,9.46,0:2,carboxylic_acid:carboxylic_acid,Hydrogen carbonate (Carbonic acid),0:2,carboxylic_acid:carboxylic_acid,0(carboxylic_acid) > 2(carboxylic_acid)
OC(O)=O,9.75,0:2,carboxylic_acid:carboxylic_acid,Hydrogen carbonate (Carbonic acid),0:2,carboxylic_acid:carboxylic_acid,0(carboxylic_acid) > 2(carboxylic_acid)
OC(O)=O,9.47,0:2,carboxylic_acid:carboxylic_acid,Hydrogen carbonate (Carbonic acid),0:2,carboxylic_acid:carboxylic_acid,0(carboxylic_acid) > 2(carboxylic_acid)
OC(O)=O,9.59,0:2,carboxylic_acid:carboxylic_acid,Hydrogen carbonate (Carbonic acid),0:2,carboxylic_acid:carboxylic_acid,0(carboxylic_acid) > 2(carboxylic_acid)
OC(O)=O,9.66,0:2,carboxylic_acid:carboxylic_acid,Hydrogen carbonate (Carbonic acid),0:2,carboxylic_acid:carboxylic_acid,0(carboxylic_acid) > 2(carboxylic_acid)
OC(O)=O,10.49,0:2,carboxylic_acid:carboxylic_acid,Hydrogen carbonate (Carbonic acid),0:2,carboxylic_acid:carboxylic_acid,0(carboxylic_acid) > 2(carboxylic_acid)
OC(O)=O,10.329,0:2,carboxylic_acid:carboxylic_acid,Hydrogen carbonate (Carbonic acid),0:2,carboxylic_acid:carboxylic_acid,0(carboxylic_acid) > 2(carboxylic_acid)
OC(O)=O,10.22,0:2,carboxylic_acid:carboxylic_acid,Hydrogen carbonate (Carbonic acid),0:2,carboxylic_acid:carboxylic_acid,0(carboxylic_acid) > 2(carboxylic_acid)
OC(O)=O,6.13,0:2,carboxylic_acid:carboxylic_acid,Hydrogen carbonate (Carbonic acid),0:2,carboxylic_acid:carboxylic_acid,0(carboxylic_acid) > 2(carboxylic_acid)
OC(O)=O,6.0,0:2,carboxylic_acid:carboxylic_acid,Hydrogen carbonate (Carbonic acid),0:2,carboxylic_acid:carboxylic_acid,0(carboxylic_acid) > 2(carboxylic_acid)
OC(O)=O,5.99,0:2,carboxylic_acid:carboxylic_acid,Hydrogen carbonate (Carbonic acid),0:2,carboxylic_acid:carboxylic_acid,0(carboxylic_acid) > 2(carboxylic_acid)
OC(O)=O,5.95,0:2,carboxylic_acid:carboxylic_acid,Hydrogen carbonate (Carbonic acid),0:2,carboxylic_acid:carboxylic_acid,0(carboxylic_acid) > 2(carboxylic_acid)
OC(O)=O,6.02,0:2,carboxylic_acid:carboxylic_acid,Hydrogen carbonate (Carbonic acid),0:2,carboxylic_acid:carboxylic_acid,0(carboxylic_acid) > 2(carboxylic_acid)
OC(O)=O,5.96,0:2,carboxylic_acid:carboxylic_acid,Hydrogen carbonate (Carbonic acid),0:2,carboxylic_acid:carboxylic_acid,0(carboxylic_acid) > 2(carboxylic_acid)
OC(O)=O,5.97,0:2,carboxylic_acid:carboxylic_acid,Hydrogen carbonate (Carbonic acid),0:2,carboxylic_acid:carboxylic_acid,0(carboxylic_acid) > 2(carboxylic_acid)
OC(O)=O,6.33,0:2,carboxylic_acid:carboxylic_acid,Hydrogen carbonate (Carbonic acid),0:2,carboxylic_acid:carboxylic_acid,0(carboxylic_acid) > 2(carboxylic_acid)
OC(O)=O,6.08,0:2,carboxylic_acid:carboxylic_acid,Hydrogen carbonate (Carbonic acid),0:2,carboxylic_acid:carboxylic_acid,0(carboxylic_acid) > 2(carboxylic_acid)
OC(O)=O,6.15,0:2,carboxylic_acid:carboxylic_acid,Hydrogen carbonate (Carbonic acid),0:2,carboxylic_acid:carboxylic_acid,0(carboxylic_acid) > 2(carboxylic_acid)
OC(O)=O,6.464,0:2,carboxylic_acid:carboxylic_acid,Hydrogen carbonate (Carbonic acid),0:2,carboxylic_acid:carboxylic_acid,0(carboxylic_acid) > 2(carboxylic_acid)
OC(O)=O,6.352,0:2,carboxylic_acid:carboxylic_acid,Hydrogen carbonate (Carbonic acid),0:2,carboxylic_acid:carboxylic_acid,0(carboxylic_acid) > 2(carboxylic_acid)
OC(O)=O,6.298,0:2,carboxylic_acid:carboxylic_acid,Hydrogen carbonate (Carbonic acid),0:2,carboxylic_acid:carboxylic_acid,0(carboxylic_acid) > 2(carboxylic_acid)
O[Si](O)(O)O,12.96,0:2,alcohol:alcohol,Hydrogen silicate (Silicic acid),0:2,alcohol:alcohol,0(alcohol) > 2(alcohol)
O[Si](O)(O)O,12.62,0:2,alcohol:alcohol,Hydrogen silicate (Silicic acid),0:2,alcohol:alcohol,0(alcohol) > 2(alcohol)
O[Si](O)(O)O,12.65,0:2,alcohol:alcohol,Hydrogen silicate (Silicic acid),0:2,alcohol:alcohol,0(alcohol) > 2(alcohol)
O[Si](O)(O)O,12.71,0:2,alcohol:alcohol,Hydrogen silicate (Silicic acid),0:2,alcohol:alcohol,0(alcohol) > 2(alcohol)
O[Si](O)(O)O,13.2,0:2,alcohol:alcohol,Hydrogen silicate (Silicic acid),0:2,alcohol:alcohol,0(alcohol) > 2(alcohol)
O[Si](O)(O)O,9.58,0:2,alcohol:alcohol,Hydrogen silicate (Silicic acid),0:2,alcohol:alcohol,0(alcohol) > 2(alcohol)
O[Si](O)(O)O,9.47,0:2,alcohol:alcohol,Hydrogen silicate (Silicic acid),0:2,alcohol:alcohol,0(alcohol) > 2(alcohol)
O[Si](O)(O)O,9.46,0:2,alcohol:alcohol,Hydrogen silicate (Silicic acid),0:2,alcohol:alcohol,0(alcohol) > 2(alcohol)
O[Si](O)(O)O,9.42,0:2,alcohol:alcohol,Hydrogen silicate (Silicic acid),0:2,alcohol:alcohol,0(alcohol) > 2(alcohol)
O[Si](O)(O)O,9.54,0:2,alcohol:alcohol,Hydrogen silicate (Silicic acid),0:2,alcohol:alcohol,0(alcohol) > 2(alcohol)
O[Si](O)(O)O,9.84,0:2,alcohol:alcohol,Hydrogen silicate (Silicic acid),0:2,alcohol:alcohol,0(alcohol) > 2(alcohol)
NN,8.07,0:1,amine_primary:amine_primary,Hydrazine,0:1,amine_primary:amine_primary,0(amine_primary) > 1(amine_primary)
NN,8.06,0:1,amine_primary:amine_primary,Hydrazine,0:1,amine_primary:amine_primary,0(amine_primary) > 1(amine_primary)
NN,8.18,0:1,amine_primary:amine_primary,Hydrazine,0:1,amine_primary:amine_primary,0(amine_primary) > 1(amine_primary)
NN,8.48,0:1,amine_primary:amine_primary,Hydrazine,0:1,amine_primary:amine_primary,0(amine_primary) > 1(amine_primary)
NN,7.98,0:1,amine_primary:amine_primary,Hydrazine,0:1,amine_primary:amine_primary,0(amine_primary) > 1(amine_primary)
NN,0.21,0:1,amine_primary:amine_primary,Hydrazine,0:1,amine_primary:amine_primary,0(amine_primary) > 1(amine_primary)
NN,0.24,0:1,amine_primary:amine_primary,Hydrazine,0:1,amine_primary:amine_primary,0(amine_primary) > 1(amine_primary)
ON=NO,10.85,0:3,alcohol:alcohol,Hydrogen hyponitrite (Hyponitrous acid),0:3,alcohol:alcohol,0(alcohol) > 3(alcohol)
ON=NO,11.54,0:3,alcohol:alcohol,Hydrogen hyponitrite (Hyponitrous acid),0:3,alcohol:alcohol,0(alcohol) > 3(alcohol)
ON=NO,6.75,0:3,alcohol:alcohol,Hydrogen hyponitrite (Hyponitrous acid),0:3,alcohol:alcohol,0(alcohol) > 3(alcohol)
ON=NO,7.18,0:3,alcohol:alcohol,Hydrogen hyponitrite (Hyponitrous acid),0:3,alcohol:alcohol,0(alcohol) > 3(alcohol)
OP(O)O,6.34,0:1,phosphate:phosphate,Hydrogen phosphite (Phosphorous acid),0:1,phosphate:phosphate,0(phosphate) > 1(phosphate)
OP(O)O,6.35,0:1,phosphate:phosphate,Hydrogen phosphite (Phosphorous acid),0:1,phosphate:phosphate,0(phosphate) > 1(phosphate)
OP(O)O,6.08,0:1,phosphate:phosphate,Hydrogen phosphite (Phosphorous acid),0:1,phosphate:phosphate,0(phosphate) > 1(phosphate)
OP(O)O,6.14,0:1,phosphate:phosphate,Hydrogen phosphite (Phosphorous acid),0:1,phosphate:phosphate,0(phosphate) > 1(phosphate)
OP(O)O,6.01,0:1,phosphate:phosphate,Hydrogen phosphite (Phosphorous acid),0:1,phosphate:phosphate,0(phosphate) > 1(phosphate)
OP(O)O,6.09,0:1,phosphate:phosphate,Hydrogen phosphite (Phosphorous acid),0:1,phosphate:phosphate,0(phosphate) > 1(phosphate)
OP(O)O,6.0,0:1,phosphate:phosphate,Hydrogen phosphite (Phosphorous acid),0:1,phosphate:phosphate,0(phosphate) > 1(phosphate)
OP(O)O,6.12,0:1,phosphate:phosphate,Hydrogen phosphite (Phosphorous acid),0:1,phosphate:phosphate,0(phosphate) > 1(phosphate)
OP(O)O,6.2,0:1,phosphate:phosphate,Hydrogen phosphite (Phosphorous acid),0:1,phosphate:phosphate,0(phosphate) > 1(phosphate)
OP(O)O,6.78,0:1,phosphate:phosphate,Hydrogen phosphite (Phosphorous acid),0:1,phosphate:phosphate,0(phosphate) > 1(phosphate)
OP(O)O,1.1,0:1,phosphate:phosphate,Hydrogen phosphite (Phosphorous acid),0:1,phosphate:phosphate,0(phosphate) > 1(phosphate)
OP(O)O,1.5,0:1,phosphate:phosphate,Hydrogen phosphite (Phosphorous acid),0:1,phosphate:phosphate,0(phosphate) > 1(phosphate)
Nc1ccccc1O,9.87,7:0,phenol:aniline,2-Aminophenol,7:0,phenol:aniline,7(phenol) > 0(aniline)
Nc1ccccc1O,9.67,7:0,phenol:aniline,2-Aminophenol,7:0,phenol:aniline,7(phenol) > 0(aniline)
Nc1ccccc1O,9.97,7:0,phenol:aniline,2-Aminophenol,7:0,phenol:aniline,7(phenol) > 0(aniline)
Nc1ccccc1O,4.74,7:0,phenol:aniline,2-Aminophenol,7:0,phenol:aniline,7(phenol) > 0(aniline)