SMILES,pKa,Dissociable_Atoms,Functional_Group,Name,Equilibrium,Ionic,Temperature,Dissociable_Atoms_Ordered,Functional_Group_Ordered,Dissociation_Order,Dissociating_Group,Functional_Group_pKa_Ranges
O=C1NCCNCCNCCNCCNC(=O)C1Cc2ccccc2,7.43,2:5:8,amine_secondary:amine_secondary:amine_secondary,"14,16-Dioxo-15-phenylmethyl-1,4,7,10,13-pentaazacyclohexadecane",[H₂L]/[HL][H],0.1,25.0,2:5:8,amine_secondary:amine_secondary:amine_secondary,2(amine_secondary) > 5(amine_secondary) > 8(amine_secondary),amine_secondary,amine_secondary(9.5~11.5); amine_secondary(9.5~11.5); amine_secondary(9.5~11.5)
O=C1NCCNCCNCCNCCNC(=O)C1Cc2ccccc2,7.79,2:5:8,amine_secondary:amine_secondary:amine_secondary,"14,16-Dioxo-15-phenylmethyl-1,4,7,10,13-pentaazacyclohexadecane",[H₂L]/[HL][H],0.1,35.0,2:5:8,amine_secondary:amine_secondary:amine_secondary,2(amine_secondary) > 5(amine_secondary) > 8(amine_secondary),amine_secondary,amine_secondary(9.5~11.5); amine_secondary(9.5~11.5); amine_secondary(9.5~11.5)
O=C1NCCNCCNCCNCCNC(=O)C1Cc2ccccc2,2.03,2:5:8,amine_secondary:amine_secondary:amine_secondary,"14,16-Dioxo-15-phenylmethyl-1,4,7,10,13-pentaazacyclohexadecane",[H₃L]/[H₂L][H],0.1,25.0,2:5:8,amine_secondary:amine_secondary:amine_secondary,2(amine_secondary) > 5(amine_secondary) > 8(amine_secondary),amine_secondary,amine_secondary(9.5~11.5); amine_secondary(9.5~11.5); amine_secondary(9.5~11.5)
O=C1NCCNCCNCCNCCNC(=O)C1Cc2cccc3ccccc23,8.99,2:5,amine_secondary:amine_secondary,"14,16-Dioxo-15-(1-naphthylmethyl)-1,4,7,10,13-pentaazacyclohexadecane",[HL]/[L][H],0.1,35.0,2:5,amine_secondary:amine_secondary,2(amine_secondary) > 5(amine_secondary),amine_secondary,amine_secondary(9.5~11.5); amine_secondary(9.5~11.5)
O=C1NCCNCCNCCNCCNC(=O)C1Cc2cccc3ccccc23,7.7,2:5,amine_secondary:amine_secondary,"14,16-Dioxo-15-(1-naphthylmethyl)-1,4,7,10,13-pentaazacyclohexadecane",[H₂L]/[HL][H],0.1,35.0,2:5,amine_secondary:amine_secondary,2(amine_secondary) > 5(amine_secondary),amine_secondary,amine_secondary(9.5~11.5); amine_secondary(9.5~11.5)
O=C1NCCNCCNCCNCCNC(=O)C1CCc2ccccn2,10.16,2:5,amine_secondary:amine_secondary,"14,16-Dioxo-15-[2-(2-pyridyl)ethyl]-1,4,7,10,13-pentaazacyclohexadecane",[HL]/[L][H],0.1,35.0,2:5,amine_secondary:amine_secondary,2(amine_secondary) > 5(amine_secondary),amine_secondary,amine_secondary(9.5~11.5); amine_secondary(9.5~11.5)
O=C1NCCNCCNCCNCCNC(=O)C1CCc2ccccn2,8.63,2:5,amine_secondary:amine_secondary,"14,16-Dioxo-15-[2-(2-pyridyl)ethyl]-1,4,7,10,13-pentaazacyclohexadecane",[H₂L]/[HL][H],0.1,35.0,2:5,amine_secondary:amine_secondary,2(amine_secondary) > 5(amine_secondary),amine_secondary,amine_secondary(9.5~11.5); amine_secondary(9.5~11.5)
O=C1CNCC(=O)NCCNCCCNCCN1,7.98,3:7:10,amine_secondary:amine_secondary:amine_secondary,"5,9-Dioxo-1,4,7,10,13-pentaazacyclohexadecane",[HL]/[L][H],0.1,35.0,3:7:10,amine_secondary:amine_secondary:amine_secondary,3(amine_secondary) > 7(amine_secondary) > 10(amine_secondary),amine_secondary,amine_secondary(9.5~11.5); amine_secondary(9.5~11.5); amine_secondary(9.5~11.5)
O=C1CNCC(=O)NCCNCCCNCCN1,4.49,3:7:10,amine_secondary:amine_secondary:amine_secondary,"5,9-Dioxo-1,4,7,10,13-pentaazacyclohexadecane",[H₂L]/[HL][H],0.1,35.0,3:7:10,amine_secondary:amine_secondary:amine_secondary,3(amine_secondary) > 7(amine_secondary) > 10(amine_secondary),amine_secondary,amine_secondary(9.5~11.5); amine_secondary(9.5~11.5); amine_secondary(9.5~11.5)
O=C1CNCC(=O)NCCNCCCNCCN1,2.3,3:7:10,amine_secondary:amine_secondary:amine_secondary,"5,9-Dioxo-1,4,7,10,13-pentaazacyclohexadecane",[H₃L]/[H₂L][H],0.1,35.0,3:7:10,amine_secondary:amine_secondary:amine_secondary,3(amine_secondary) > 7(amine_secondary) > 10(amine_secondary),amine_secondary,amine_secondary(9.5~11.5); amine_secondary(9.5~11.5); amine_secondary(9.5~11.5)
O=C1CNCC(=O)NCCNCCNCCNCCN1,8.58,3:7:10,amine_secondary:amine_secondary:amine_secondary,"2,6-Dioxo-1,4,7,10,13,16-hexaazacyclooctadecane",[HL]/[L][H],0.1,25.0,3:7:10,amine_secondary:amine_secondary:amine_secondary,3(amine_secondary) > 7(amine_secondary) > 10(amine_secondary),amine_secondary,amine_secondary(9.5~11.5); amine_secondary(9.5~11.5); amine_secondary(9.5~11.5)
O=C1CNCC(=O)NCCNCCNCCNCCN1,6.98,3:7:10,amine_secondary:amine_secondary:amine_secondary,"2,6-Dioxo-1,4,7,10,13,16-hexaazacyclooctadecane",[H₂L]/[HL][H],0.1,25.0,3:7:10,amine_secondary:amine_secondary:amine_secondary,3(amine_secondary) > 7(amine_secondary) > 10(amine_secondary),amine_secondary,amine_secondary(9.5~11.5); amine_secondary(9.5~11.5); amine_secondary(9.5~11.5)
O=C1CNCC(=O)NCCNCCNCCNCCN1,2.0,3:7:10,amine_secondary:amine_secondary:amine_secondary,"2,6-Dioxo-1,4,7,10,13,16-hexaazacyclooctadecane",[H₃L]/[H₂L][H],0.1,25.0,3:7:10,amine_secondary:amine_secondary:amine_secondary,3(amine_secondary) > 7(amine_secondary) > 10(amine_secondary),amine_secondary,amine_secondary(9.5~11.5); amine_secondary(9.5~11.5); amine_secondary(9.5~11.5)
C1CSCN1,6.54,4,amine_secondary,"1,3-Thiazolidine (1-Thia-3-azacyclopentane)",[HL]/[L][H],0.5,25.0,4,amine_secondary,4(amine_secondary),amine_secondary,amine_secondary(9.5~11.5)
CN1CCSCCN(C)CCSCC1,9.39,8,tertiary_amine,"N,N'-Dimethyl-1,7-dithia-4,10-diazacyclododecane",[HL]/[L][H],0.1,25.0,8,tertiary_amine,8(tertiary_amine),Unknown,tertiary_amine(Unknown)
CN1CCSCCN(C)CCSCC1,6.03,8,tertiary_amine,"N,N'-Dimethyl-1,7-dithia-4,10-diazacyclododecane",[H₂L]/[HL][H],0.1,25.0,8,tertiary_amine,8(tertiary_amine),Unknown,tertiary_amine(Unknown)
C1CNCCSCCSCCN1,9.11,2:11,amine_secondary:amine_secondary,"1,4-Dithia-7,10-diazacyclododecane",[HL]/[L][H],0.1,20.0,2:11,amine_secondary:amine_secondary,2(amine_secondary) > 11(amine_secondary),amine_secondary,amine_secondary(9.5~11.5); amine_secondary(9.5~11.5)
C1CNCCSCCSCCN1,9.13,2:11,amine_secondary:amine_secondary,"1,4-Dithia-7,10-diazacyclododecane",[HL]/[L][H],0.5,25.0,2:11,amine_secondary:amine_secondary,2(amine_secondary) > 11(amine_secondary),amine_secondary,amine_secondary(9.5~11.5); amine_secondary(9.5~11.5)
C1CNCCSCCSCCN1,5.2,2:11,amine_secondary:amine_secondary,"1,4-Dithia-7,10-diazacyclododecane",[H₂L]/[HL][H],0.1,20.0,2:11,amine_secondary:amine_secondary,2(amine_secondary) > 11(amine_secondary),amine_secondary,amine_secondary(9.5~11.5); amine_secondary(9.5~11.5)
C1CNCCSCCSCCN1,5.04,2:11,amine_secondary:amine_secondary,"1,4-Dithia-7,10-diazacyclododecane",[H₂L]/[HL][H],0.5,25.0,2:11,amine_secondary:amine_secondary,2(amine_secondary) > 11(amine_secondary),amine_secondary,amine_secondary(9.5~11.5); amine_secondary(9.5~11.5)
C1CNCCNCCCSCCSC1,9.75,2:5,amine_secondary:amine_secondary,"1,4-Dithia-8,11-diazacyclotetradecane",[HL]/[L][H],0.1,20.0,2:5,amine_secondary:amine_secondary,2(amine_secondary) > 5(amine_secondary),amine_secondary,amine_secondary(9.5~11.5); amine_secondary(9.5~11.5)
C1CNCCNCCCSCCSC1,9.77,2:5,amine_secondary:amine_secondary,"1,4-Dithia-8,11-diazacyclotetradecane",[HL]/[L][H],0.5,25.0,2:5,amine_secondary:amine_secondary,2(amine_secondary) > 5(amine_secondary),amine_secondary,amine_secondary(9.5~11.5); amine_secondary(9.5~11.5)
C1CNCCNCCCSCCSC1,6.01,2:5,amine_secondary:amine_secondary,"1,4-Dithia-8,11-diazacyclotetradecane",[H₂L]/[HL][H],0.1,20.0,2:5,amine_secondary:amine_secondary,2(amine_secondary) > 5(amine_secondary),amine_secondary,amine_secondary(9.5~11.5); amine_secondary(9.5~11.5)
C1CNCCNCCCSCCSC1,5.72,2:5,amine_secondary:amine_secondary,"1,4-Dithia-8,11-diazacyclotetradecane",[H₂L]/[HL][H],0.5,25.0,2:5,amine_secondary:amine_secondary,2(amine_secondary) > 5(amine_secondary),amine_secondary,amine_secondary(9.5~11.5); amine_secondary(9.5~11.5)
C1CNCCSCCOCCSCCN1,8.9,2:14,amine_secondary:amine_secondary,"1-Oxa-4,13-dithia-7,10-diazacyclopentadecane",[HL]/[L][H],0.1,25.0,2:14,amine_secondary:amine_secondary,2(amine_secondary) > 14(amine_secondary),amine_secondary,amine_secondary(9.5~11.5); amine_secondary(9.5~11.5)
C1CNCCSCCOCCSCCN1,5.21,2:14,amine_secondary:amine_secondary,"1-Oxa-4,13-dithia-7,10-diazacyclopentadecane",[H₂L]/[HL][H],0.1,25.0,2:14,amine_secondary:amine_secondary,2(amine_secondary) > 14(amine_secondary),amine_secondary,amine_secondary(9.5~11.5); amine_secondary(9.5~11.5)
CN1CCN2CCCSCCCN(CC1)CCN(C)CC2,11.91,1,tertiary_amine,"12,17-Dimethyl-5-thia-1,9,12,17-tetraazabicyclo[7.5.5]nonadecane",[HL]/[L][H],0.1,25.0,1,tertiary_amine,1(tertiary_amine),Unknown,tertiary_amine(Unknown)
CN1CCN2CCCSCCCN(CC1)CCN(C)CC2,8.78,1,tertiary_amine,"12,17-Dimethyl-5-thia-1,9,12,17-tetraazabicyclo[7.5.5]nonadecane",[H₂L]/[HL][H],0.1,25.0,1,tertiary_amine,1(tertiary_amine),Unknown,tertiary_amine(Unknown)
O=C1CSCC(=O)NCCNCCNCCN1,9.0,7:10,amine_secondary:amine_secondary,"3,14-Dioxo-1-thia-4,7,10,13-tetraazacyclopentadecane",[HL]/[L][H],0.1,25.0,7:10,amine_secondary:amine_secondary,7(amine_secondary) > 10(amine_secondary),amine_secondary,amine_secondary(9.5~11.5); amine_secondary(9.5~11.5)
O=C1CSCC(=O)NCCNCCNCCN1,5.49,7:10,amine_secondary:amine_secondary,"3,14-Dioxo-1-thia-4,7,10,13-tetraazacyclopentadecane",[H₂L]/[HL][H],0.1,25.0,7:10,amine_secondary:amine_secondary,7(amine_secondary) > 10(amine_secondary),amine_secondary,amine_secondary(9.5~11.5); amine_secondary(9.5~11.5)
O=C1CSCC(=O)NCCCNCCNCCCN1,9.54,7:11,amine_secondary:amine_secondary,"3,16-Dioxo-1-thia-4,8,11,15-tetraazacycloheptadecane",[HL]/[L][H],0.1,25.0,7:11,amine_secondary:amine_secondary,7(amine_secondary) > 11(amine_secondary),amine_secondary,amine_secondary(9.5~11.5); amine_secondary(9.5~11.5)
O=C1CSCC(=O)NCCCNCCNCCCN1,6.53,7:11,amine_secondary:amine_secondary,"3,16-Dioxo-1-thia-4,8,11,15-tetraazacycloheptadecane",[H₂L]/[HL][H],0.1,25.0,7:11,amine_secondary:amine_secondary,7(amine_secondary) > 11(amine_secondary),amine_secondary,amine_secondary(9.5~11.5); amine_secondary(9.5~11.5)
O=C1CC(=O)NCCNCCSCCNCCN1,8.16,5:8,amine_secondary:amine_secondary,"8,10-Dioxo-1-thia-4,7,11,14-tetraazacyclohexadecane",[HL]/[L][H],0.1,35.0,5:8,amine_secondary:amine_secondary,5(amine_secondary) > 8(amine_secondary),amine_secondary,amine_secondary(9.5~11.5); amine_secondary(9.5~11.5)
O=C1CC(=O)NCCNCCSCCNCCN1,7.23,5:8,amine_secondary:amine_secondary,"8,10-Dioxo-1-thia-4,7,11,14-tetraazacyclohexadecane",[H₂L]/[HL][H],0.1,35.0,5:8,amine_secondary:amine_secondary,5(amine_secondary) > 8(amine_secondary),amine_secondary,amine_secondary(9.5~11.5); amine_secondary(9.5~11.5)
OC(=O)c1[nH]ccc1,4.29,4,amine_secondary,Pyrrole-2-carboxylic acid (Azole-2-carboxylic acid),[HL]/[L][H],1.0,25.0,4,amine_secondary,4(amine_secondary),amine_secondary,amine_secondary(9.5~11.5)
OC(=O)c1[nH]ccc1,4.45,4,amine_secondary,Pyrrole-2-carboxylic acid (Azole-2-carboxylic acid),[HL]/[L][H],0.0,25.0,4,amine_secondary,4(amine_secondary),amine_secondary,amine_secondary(9.5~11.5)
CNCc1[nH]cc(c1)[S](O)(=O)=O,9.58,4,amine_secondary,2-(Methylaminomethyl)pyrrole-4-sulfonic acid,[HL]/[L][H],1.0,25.0,4,amine_secondary,4(amine_secondary),amine_secondary,amine_secondary(9.5~11.5)
NCCNCc1[nH]cc(c1)[S](O)(=O)=O,9.74,0:3,amine_primary:amine_secondary,2-(2-Aminoethylaminomethyl)pyrrole-4-sulfonic acid,[HL]/[L][H],1.0,25.0,0:3,amine_primary:amine_secondary,0(amine_primary) > 3(amine_secondary),amine_primary,amine_primary(9.0~11.0); amine_secondary(9.5~11.5)
NCCNCc1[nH]cc(c1)[S](O)(=O)=O,6.56,0:3,amine_primary:amine_secondary,2-(2-Aminoethylaminomethyl)pyrrole-4-sulfonic acid,[H₂L]/[HL][H],1.0,25.0,0:3,amine_primary:amine_secondary,0(amine_primary) > 3(amine_secondary),amine_primary,amine_primary(9.0~11.0); amine_secondary(9.5~11.5)
NCCc1c[nH]c2ccc(O)cc12,11.13,10:5,phenol:amine_secondary,3-(2-Aminoethyl)-5-hydroxyindole (5-Hydroxytryptamine),[HL]/[L][H],0.5,20.0,10:5,phenol:amine_secondary,10(phenol) > 5(amine_secondary),amine_secondary,phenol(8.0~11.0); amine_secondary(9.5~11.5)
NCCc1c[nH]c2ccc(O)cc12,9.85,10:5,phenol:amine_secondary,3-(2-Aminoethyl)-5-hydroxyindole (5-Hydroxytryptamine),[H₂L]/[HL][H],0.5,20.0,10:5,phenol:amine_secondary,10(phenol) > 5(amine_secondary),phenol,phenol(8.0~11.0); amine_secondary(9.5~11.5)
COC(=O)[C@@H](N)Cc1c[nH]c2ccccc12,7.3,9,amine_secondary,L-2-Amino-3-(3-indolyl)propanoic acid methyl ester (Tryptophan methyl ester),[HL]/[L][H],0.1,25.0,9,amine_secondary,9(amine_secondary),amine_secondary,amine_secondary(9.5~11.5)
COC(=O)[C@@H](N)Cc1c[nH]c2ccccc12,7.18,9,amine_secondary,L-2-Amino-3-(3-indolyl)propanoic acid methyl ester (Tryptophan methyl ester),[HL]/[L][H],0.5,20.0,9,amine_secondary,9(amine_secondary),amine_secondary,amine_secondary(9.5~11.5)
Cc1noc(N)c1C,1.3,5,aniline,"5-Amino-3,4-dimethyl-1,2-oxazole",[HL]/[L][H],0.5,25.0,5,aniline,5(aniline),Unknown,aniline(Unknown)
s1ccnc1,2.8,0,thiazole_sulfur,"1,3-Thiazole",[HL]/[L][H],0.5,25.0,0,thiazole_sulfur,0(thiazole_sulfur),Unknown,thiazole_sulfur(Unknown)
Cc1cscn1,3.13,6,heterocyclic_nitrogen,"4-Methyl-1,3-thiazole",[HL]/[L][H],0.5,25.0,6,heterocyclic_nitrogen,6(heterocyclic_nitrogen),Unknown,heterocyclic_nitrogen(Unknown)
Cc1scc(C)n1,4.02,9,ring_nitrogen,"2,4-Dimethyl-1,3-thiazole",[HL]/[L][H],0.5,25.0,9,ring_nitrogen,9(ring_nitrogen),Unknown,ring_nitrogen(Unknown)
Nc1sccn1,5.57,6,heterocyclic_nitrogen,"2-Amino-1,3-thiazole",[HL]/[L][H],0.5,25.0,6,heterocyclic_nitrogen,6(heterocyclic_nitrogen),Unknown,heterocyclic_nitrogen(Unknown)
Cc1csc(N)n1,5.95,9,ring_nitrogen,"2-Amino-4-methyl-1,3-thiazole",[HL]/[L][H],0.5,25.0,9,ring_nitrogen,9(ring_nitrogen),Unknown,ring_nitrogen(Unknown)
[nH]1cccn1,2.58,8,heterocyclic_nitrogen,"1,2-Diazole (Pyrazole)",[HL]/[L][H],0.1,25.0,8,heterocyclic_nitrogen,8(heterocyclic_nitrogen),Unknown,heterocyclic_nitrogen(Unknown)
[nH]1cccn1,2.56,8,heterocyclic_nitrogen,"1,2-Diazole (Pyrazole)",[HL]/[L][H],0.5,25.0,8,heterocyclic_nitrogen,8(heterocyclic_nitrogen),Unknown,heterocyclic_nitrogen(Unknown)
[nH]1cccn1,2.78,8,heterocyclic_nitrogen,"1,2-Diazole (Pyrazole)",[HL]/[L][H],1.0,25.0,8,heterocyclic_nitrogen,8(heterocyclic_nitrogen),Unknown,heterocyclic_nitrogen(Unknown)
[nH]1cccn1,2.61,8,heterocyclic_nitrogen,"1,2-Diazole (Pyrazole)",[HL]/[L][H],0.0,25.0,8,heterocyclic_nitrogen,8(heterocyclic_nitrogen),Unknown,heterocyclic_nitrogen(Unknown)
Cn1cccn1,2.04,1,heterocyclic_nitrogen,1-Methylpyrazole,[HL]/[L][H],0.5,25.0,1,heterocyclic_nitrogen,1(heterocyclic_nitrogen),Unknown,heterocyclic_nitrogen(Unknown)
Cc1cc[nH]n1,3.44,9,ring_nitrogen,3-Methylpyrazole,[HL]/[L][H],0.5,25.0,9,ring_nitrogen,9(ring_nitrogen),Unknown,ring_nitrogen(Unknown)
Cc1c[nH]nc1,3.06,3,amine_secondary,4-Methylpyrazole,[HL]/[L][H],0.5,25.0,3,amine_secondary,3(amine_secondary),amine_secondary,amine_secondary(9.5~11.5)
Cc1[nH]nc(C)c1,4.21,2,amine_secondary,"3,5-Dimethylpyrazole",[HL]/[L][H],0.5,25.0,2,amine_secondary,2(amine_secondary),amine_secondary,amine_secondary(9.5~11.5)
Cn1cc(C)c(C)n1,3.56,1,heterocyclic_nitrogen,"1,3,4-Trimethylpyrazole",[HL]/[L][H],0.5,25.0,1,heterocyclic_nitrogen,1(heterocyclic_nitrogen),Unknown,heterocyclic_nitrogen(Unknown)
Cn1nc(C)cc1C,3.96,1,heterocyclic_nitrogen,"1,3,5-Trimethylpyrazole",[HL]/[L][H],0.5,25.0,1,heterocyclic_nitrogen,1(heterocyclic_nitrogen),Unknown,heterocyclic_nitrogen(Unknown)
Cn1ncc(C)c1C,3.58,1,heterocyclic_nitrogen,"1,4,5-Trimethylpyrazole",[HL]/[L][H],0.5,25.0,1,heterocyclic_nitrogen,1(heterocyclic_nitrogen),Unknown,heterocyclic_nitrogen(Unknown)
Cc1[nH]nc(C)c1C,4.82,2,amine_secondary,"3,4,5-Trimethylpyrazole",[HL]/[L][H],0.5,25.0,2,amine_secondary,2(amine_secondary),amine_secondary,amine_secondary(9.5~11.5)
Cn1nc(C)c(C)c1C,4.48,1,heterocyclic_nitrogen,"1,3,4,5-Tetramethylpyrazole",[HL]/[L][H],0.5,25.0,1,heterocyclic_nitrogen,1(heterocyclic_nitrogen),Unknown,heterocyclic_nitrogen(Unknown)
[nH]1ncc2ccccc12,1.1,0,amine_secondary,"1H-Benzo-1,2-diazole (Indazole)",[HL]/[L][H],0.5,25.0,0,amine_secondary,0(amine_secondary),amine_secondary,amine_secondary(9.5~11.5)
Cn1ncc2ccccc12,0.4,1,heterocyclic_nitrogen,1-Methylindazole,[HL]/[L][H],0.5,25.0,1,heterocyclic_nitrogen,1(heterocyclic_nitrogen),Unknown,heterocyclic_nitrogen(Unknown)
Cn1cc2ccccc2n1,2.0,1,heterocyclic_nitrogen,2-Methylindazole,[HL]/[L][H],0.1,25.0,1,heterocyclic_nitrogen,1(heterocyclic_nitrogen),Unknown,heterocyclic_nitrogen(Unknown)
Nc1cc[nH]n1,3.95,9,ring_nitrogen,3-Aminopyrazole,[HL]/[L][H],0.5,25.0,9,ring_nitrogen,9(ring_nitrogen),Unknown,ring_nitrogen(Unknown)
CN1N(C(=O)C=C1C)c2ccccc2,1.5,3,tertiary_amine,"1,5-Dimethyl-2-phenylpyrazol-3-one (Antipyrine)",[HL]/[L][H],0.5,25.0,3,tertiary_amine,3(tertiary_amine),Unknown,tertiary_amine(Unknown)
CN1N(c2ccccc2)C(=O)C(=C1C)O,1.5,3,tertiary_amine,"4-Hydroxy-1,5-dimethyl-2-phenylpyrazol-3-one (4-Hydroxyantipyrine)",[HL]/[L][H],0.5,25.0,3,tertiary_amine,3(tertiary_amine),Unknown,tertiary_amine(Unknown)
CN1N(C(=O)C(=C1C)NC(C)=O)c2ccccc2,0.5,3,tertiary_amine,"4-Acetamido-1,5-dimethyl-2-phenylpyrazol-3-one (4-Acetamidoantipyrine)",[HL]/[L][H],0.5,25.0,3,tertiary_amine,3(tertiary_amine),Unknown,tertiary_amine(Unknown)
CN1N(c2ccccc2)C(=O)C(=C1C)N,4.18,3,tertiary_amine,"4-Amino-1,5-dimethyl-2-phenylpyrazol-3-one (4-Aminoantipyrine)",[HL]/[L][H],0.0,25.0,3,tertiary_amine,3(tertiary_amine),Unknown,tertiary_amine(Unknown)
CN1N(c2ccccc2)C(=O)C(=C1C)N,4.29,3,tertiary_amine,"4-Amino-1,5-dimethyl-2-phenylpyrazol-3-one (4-Aminoantipyrine)",[HL]/[L][H],0.5,25.0,3,tertiary_amine,3(tertiary_amine),Unknown,tertiary_amine(Unknown)
CN(C)C1=C(C)N(C)N(c2ccccc2)C1=O,4.94,1,tertiary_amine,"4-Dimethylamino-1,5-dimethyl-2-phenylpyrazol-3-one (Pyramidone) (Aminopyrine)",[HL]/[L][H],0.0,25.0,1,tertiary_amine,1(tertiary_amine),Unknown,tertiary_amine(Unknown)
CN(C)C1=C(C)N(C)N(c2ccccc2)C1=O,5.06,1,tertiary_amine,"4-Dimethylamino-1,5-dimethyl-2-phenylpyrazol-3-one (Pyramidone) (Aminopyrine)",[HL]/[L][H],0.5,25.0,1,tertiary_amine,1(tertiary_amine),Unknown,tertiary_amine(Unknown)
Cc1sc(C)nn1,0.8,9,ring_nitrogen,"2,5-Dimethyl-1,3,4-thiadiazole",[HL]/[L][H],0.5,25.0,9,ring_nitrogen,9(ring_nitrogen),Unknown,ring_nitrogen(Unknown)
Nc1scnn1,2.78,6,pyridine_nitrogen,"2-Amino-1,3,4-thiadiazole",[HL]/[L][H],0.5,25.0,6,pyridine_nitrogen,6(pyridine_nitrogen),Unknown,pyridine_nitrogen(Unknown)
Cc1sc(N)nn1,3.2,9,ring_nitrogen,"2-Amino-5-methyl-1,3,4-thiadiazole",[HL]/[L][H],0.5,25.0,9,ring_nitrogen,9(ring_nitrogen),Unknown,ring_nitrogen(Unknown)
CCc1sc(N)nn1,3.35,10,ring_nitrogen,"2-Amino-5-ethyl-1,3,4-thiadiazole",[HL]/[L][H],0.5,25.0,10,ring_nitrogen,10(ring_nitrogen),Unknown,ring_nitrogen(Unknown)
CCNc1scnn1,3.01,8,pyridine_nitrogen,"2-Ethylamino-1,3,4-thiadiazole",[HL]/[L][H],0.5,25.0,8,pyridine_nitrogen,8(pyridine_nitrogen),Unknown,pyridine_nitrogen(Unknown)
[nH]1ccnc1,7.0,0,amine_secondary,"1,3-Diazole (Imidazole)",[HL]/[L][H],0.1,25.0,0,amine_secondary,0(amine_secondary),amine_secondary,amine_secondary(9.5~11.5)
[nH]1ccnc1,6.77,0,amine_secondary,"1,3-Diazole (Imidazole)",[HL]/[L][H],0.15,37.0,0,amine_secondary,0(amine_secondary),amine_secondary,amine_secondary(9.5~11.5)
[nH]1ccnc1,7.15,0,amine_secondary,"1,3-Diazole (Imidazole)",[HL]/[L][H],0.5,25.0,0,amine_secondary,0(amine_secondary),amine_secondary,amine_secondary(9.5~11.5)
[nH]1ccnc1,7.25,0,amine_secondary,"1,3-Diazole (Imidazole)",[HL]/[L][H],1.0,25.0,0,amine_secondary,0(amine_secondary),amine_secondary,amine_secondary(9.5~11.5)
[nH]1ccnc1,7.58,0,amine_secondary,"1,3-Diazole (Imidazole)",[HL]/[L][H],2.0,25.0,0,amine_secondary,0(amine_secondary),amine_secondary,amine_secondary(9.5~11.5)
[nH]1ccnc1,7.64,0,amine_secondary,"1,3-Diazole (Imidazole)",[HL]/[L][H],3.0,25.0,0,amine_secondary,0(amine_secondary),amine_secondary,amine_secondary(9.5~11.5)
[nH]1ccnc1,7.9,0,amine_secondary,"1,3-Diazole (Imidazole)",[HL]/[L][H],3.0,25.0,0,amine_secondary,0(amine_secondary),amine_secondary,amine_secondary(9.5~11.5)
[nH]1ccnc1,8.18,0,amine_secondary,"1,3-Diazole (Imidazole)",[HL]/[L][H],4.0,25.0,0,amine_secondary,0(amine_secondary),amine_secondary,amine_secondary(9.5~11.5)
[nH]1ccnc1,8.12,0,amine_secondary,"1,3-Diazole (Imidazole)",[HL]/[L][H],5.0,25.0,0,amine_secondary,0(amine_secondary),amine_secondary,amine_secondary(9.5~11.5)
[nH]1ccnc1,7.334,0,amine_secondary,"1,3-Diazole (Imidazole)",[HL]/[L][H],0.0,10.0,0,amine_secondary,0(amine_secondary),amine_secondary,amine_secondary(9.5~11.5)