SMILES,pKa,Dissociable_Atoms,Functional_Group,Name,Dissociable_Atoms_Ordered,Functional_Group_Ordered,Dissociation_Order
CC(=O)OCC(O)=O,2.81,6,carboxylic_acid,Acetoxyacetic acid,6,carboxylic_acid,6(carboxylic_acid)
CC(=O)NCC(O)=O,3.49,6,carboxylic_acid,N-Acetylglycine,6,carboxylic_acid,6(carboxylic_acid)
CC(=O)NCC(O)=O,3.44,6,carboxylic_acid,N-Acetylglycine,6,carboxylic_acid,6(carboxylic_acid)
CC(=O)NCC(O)=O,3.46,6,carboxylic_acid,N-Acetylglycine,6,carboxylic_acid,6(carboxylic_acid)
CC(=O)NCC(O)=O,3.67,6,carboxylic_acid,N-Acetylglycine,6,carboxylic_acid,6(carboxylic_acid)
CCC(=O)NCC(O)=O,3.718,7,carboxylic_acid,N-Propanoylglycine,7,carboxylic_acid,7(carboxylic_acid)
C[C@H](NC(C)=O)C(O)=O,3.715,7,carboxylic_acid,N-Acetylalanine,7,carboxylic_acid,7(carboxylic_acid)
CCC(NC(C)=O)C(O)=O,3.716,8,carboxylic_acid,N-Acetyl-2-aminobutanoic acid,8,carboxylic_acid,8(carboxylic_acid)
CC(=O)NCCC(O)=O,4.445,7,carboxylic_acid,N-Acetyl-3-aminopropanoic acid,7,carboxylic_acid,7(carboxylic_acid)
OC(=O)CNC(=O)c1ccccc1,3.48,0,carboxylic_acid,N-Benzoylglycine (Hippuric acid),0,carboxylic_acid,0(carboxylic_acid)
OC(=O)CNC(=O)c1ccccc1,3.5,0,carboxylic_acid,N-Benzoylglycine (Hippuric acid),0,carboxylic_acid,0(carboxylic_acid)
CC(=O)NCC(=O)NCC(O)=O,3.36,10,carboxylic_acid,N-Acetylglycylglycine,10,carboxylic_acid,10(carboxylic_acid)
OC(=O)[C@@H]1CCC(=O)N1,3.1,0,carboxylic_acid,L-5-Pyrrolidone-2-carboxylic acid (Pyroglutamic acid),0,carboxylic_acid,0(carboxylic_acid)
C[C@]1(CCC(=O)N1)C(O)=O,3.14,8,carboxylic_acid,DL-2-Methyl-5-pyrrolidone-2-carboxylic acid (2-Methylpyroglutamic acid),8,carboxylic_acid,8(carboxylic_acid)
OC(=O)[C@@]1(CCC(=O)N1)c2ccccc2,2.69,0,carboxylic_acid,DL-2-Phenyl-5-pyrrolidone-2-carboxylic acid (2-Phenylpyroglutamic acid),0,carboxylic_acid,0(carboxylic_acid)
NC(=O)NCC(O)=O,3.876,6,carboxylic_acid,N-Carbamoylglycine,6,carboxylic_acid,6(carboxylic_acid)
C[C@H](NC(N)=O)C(O)=O,3.892,7,carboxylic_acid,N-Carbamoylalanine,7,carboxylic_acid,7(carboxylic_acid)
CCC(NC(N)=O)C(O)=O,3.886,8,carboxylic_acid,N-Carbamoyl-2-aminobutanoic acid,8,carboxylic_acid,8(carboxylic_acid)
CC(C)(NC(N)=O)C(O)=O,4.463,8,carboxylic_acid,N-Carbamoyl-2-amino-2-methylpropanoic acid,8,carboxylic_acid,8(carboxylic_acid)
NC(=O)NCCC(O)=O,4.487,7,carboxylic_acid,N-Carbamoyl-3-aminopropanoic acid,7,carboxylic_acid,7(carboxylic_acid)
NC(=O)NCCCC(O)=O,4.683,8,carboxylic_acid,N-Carbamoyl-4-aminobutanoic acid,8,carboxylic_acid,8(carboxylic_acid)
OC(=O)C1=C(C(=O)NC(=O)N1)[N+]([O-])=O,4.83,25,n_oxide,"5-Nitro-1,3-dihydro-1,3-diazine-2,4-dione-6-carboxylic acid (5-Nitroorotic acid)",25,n_oxide,25(n_oxide)
OC(=O)C(=O)Cc1ccccc1,2.33,0,carboxylic_acid,2-Oxo-3-phenylpropanoic acid (Phenylpyruvic acid),0,carboxylic_acid,0(carboxylic_acid)
CN(CC(O)=O)C(C)=O,3.3,1,tertiary_amine,N-Acetyl-N-Methylglycine (N-Acetylsarcosine),1,tertiary_amine,1(tertiary_amine)
COCC(O)=O,3.32,4,carboxylic_acid,Methoxyacetic acid,4,carboxylic_acid,4(carboxylic_acid)
COCC(O)=O,3.38,4,carboxylic_acid,Methoxyacetic acid,4,carboxylic_acid,4(carboxylic_acid)
COCC(O)=O,3.74,4,carboxylic_acid,Methoxyacetic acid,4,carboxylic_acid,4(carboxylic_acid)
COCC(O)=O,3.544,4,carboxylic_acid,Methoxyacetic acid,4,carboxylic_acid,4(carboxylic_acid)
COCC(O)=O,3.57,4,carboxylic_acid,Methoxyacetic acid,4,carboxylic_acid,4(carboxylic_acid)
COCC(O)=O,3.613,4,carboxylic_acid,Methoxyacetic acid,4,carboxylic_acid,4(carboxylic_acid)
CCOCC(O)=O,3.51,5,carboxylic_acid,Ethoxyacetic acid,5,carboxylic_acid,5(carboxylic_acid)
CCOCC(O)=O,3.65,5,carboxylic_acid,Ethoxyacetic acid,5,carboxylic_acid,5(carboxylic_acid)
CCCOCC(O)=O,3.59,6,carboxylic_acid,2-Propoxyacetic acid,6,carboxylic_acid,6(carboxylic_acid)
COCCC(O)=O,4.71,5,carboxylic_acid,3-Methoxypropanoic acid,5,carboxylic_acid,5(carboxylic_acid)
OC(=O)COc1ccccc1,2.96,0,carboxylic_acid,Phenoxyacetic acid,0,carboxylic_acid,0(carboxylic_acid)
OC(=O)COc1ccccc1,2.94,0,carboxylic_acid,Phenoxyacetic acid,0,carboxylic_acid,0(carboxylic_acid)
OC(=O)COc1ccccc1,2.87,0,carboxylic_acid,Phenoxyacetic acid,0,carboxylic_acid,0(carboxylic_acid)
OC(=O)COc1ccccc1,3.56,0,carboxylic_acid,Phenoxyacetic acid,0,carboxylic_acid,0(carboxylic_acid)
OC(=O)COc1ccccc1,3.15,0,carboxylic_acid,Phenoxyacetic acid,0,carboxylic_acid,0(carboxylic_acid)
CC(Oc1ccccc1)C(O)=O,2.88,10,carboxylic_acid,2-Phenoxypropanoic acid,10,carboxylic_acid,10(carboxylic_acid)
CC(Oc1ccccc1)C(O)=O,2.93,10,carboxylic_acid,2-Phenoxypropanoic acid,10,carboxylic_acid,10(carboxylic_acid)
CCC(Oc1ccccc1)C(O)=O,2.99,11,carboxylic_acid,2-Phenoxybutanoic acid,11,carboxylic_acid,11(carboxylic_acid)
CCC(Oc1ccccc1)C(O)=O,3.06,11,carboxylic_acid,2-Phenoxybutanoic acid,11,carboxylic_acid,11(carboxylic_acid)
OC(=O)c1occc1,2.97,0,carboxylic_acid,Oxole-2-carboxylic acid (2-Furoic acid),0,carboxylic_acid,0(carboxylic_acid)
OC(=O)c1occc1,2.98,0,carboxylic_acid,Oxole-2-carboxylic acid (2-Furoic acid),0,carboxylic_acid,0(carboxylic_acid)
OC(=O)c1occc1,3.01,0,carboxylic_acid,Oxole-2-carboxylic acid (2-Furoic acid),0,carboxylic_acid,0(carboxylic_acid)
OC(=O)c1occc1,3.11,0,carboxylic_acid,Oxole-2-carboxylic acid (2-Furoic acid),0,carboxylic_acid,0(carboxylic_acid)
OC(=O)c1occc1,3.162,0,carboxylic_acid,Oxole-2-carboxylic acid (2-Furoic acid),0,carboxylic_acid,0(carboxylic_acid)
Cc1ccccc1OCC(O)=O,3.227,10,carboxylic_acid,2-Methylphenoxyacetic acid,10,carboxylic_acid,10(carboxylic_acid)
Cc1cccc(OCC(O)=O)c1,3.203,9,carboxylic_acid,3-Methylphenoxyacetic acid,9,carboxylic_acid,9(carboxylic_acid)
Cc1ccc(OCC(O)=O)cc1,3.215,8,carboxylic_acid,4-Methylphenoxyacetic acid,8,carboxylic_acid,8(carboxylic_acid)
OC(=O)COc1ccccc1F,3.085,0,carboxylic_acid,2-Fluorophenoxyacetic acid,0,carboxylic_acid,0(carboxylic_acid)
OC(=O)COc1cccc(F)c1,3.082,0,carboxylic_acid,3-Fluorophenoxyacetic acid,0,carboxylic_acid,0(carboxylic_acid)
OC(=O)COc1ccc(F)cc1,3.13,0,carboxylic_acid,4-Fluorophenoxyacetic acid,0,carboxylic_acid,0(carboxylic_acid)
OC(=O)COc1ccccc1Br,3.123,0,carboxylic_acid,2-Bromophenoxyacetic acid,0,carboxylic_acid,0(carboxylic_acid)
OC(=O)COc1cccc(Br)c1,3.095,0,carboxylic_acid,3-Bromophenoxyacetic acid,0,carboxylic_acid,0(carboxylic_acid)
OC(=O)COc1ccc(Br)cc1,3.133,0,carboxylic_acid,4-Bromophenoxyacetic acid,0,carboxylic_acid,0(carboxylic_acid)
OC(=O)COc1ccccc1I,3.173,0,carboxylic_acid,2-Iodophenoxyacetic acid,0,carboxylic_acid,0(carboxylic_acid)
OC(=O)COc1cccc(I)c1,3.128,0,carboxylic_acid,3-Iodophenoxyacetic acid,0,carboxylic_acid,0(carboxylic_acid)
OC(=O)COc1ccc(I)cc1,3.159,0,carboxylic_acid,4-Iodophenoxyacetic acid,0,carboxylic_acid,0(carboxylic_acid)
OC(=O)COc1ccccc1[N+]([O-])=O,2.896,16,n_oxide,2-Nitrophenoxyacetic acid,16,n_oxide,16(n_oxide)
OC(=O)COc1cccc(c1)[N+]([O-])=O,2.951,18,n_oxide,3-Nitrophenoxyacetic acid,18,n_oxide,18(n_oxide)
OC(=O)COc1ccc(cc1)[N+]([O-])=O,2.891,18,n_oxide,4-Nitrophenoxyacetic acid,18,n_oxide,18(n_oxide)
Cc1cccc(C)c1OCC(O)=O,3.356,11,carboxylic_acid,"2,6-Dimethylphenoxyacetic acid",11,carboxylic_acid,11(carboxylic_acid)
OC(=O)COc1ccccc1C#N,2.975,18,nitrile,2-Cyanophenoxyacetic acid,18,nitrile,18(nitrile)
OC(=O)COc1cccc(c1)C#N,3.034,20,nitrile,3-Cyanophenoxyacetic acid,20,nitrile,20(nitrile)
OC(=O)COc1ccc(cc1)C#N,2.932,20,nitrile,4-Cyanophenoxyacetic acid,20,nitrile,20(nitrile)
COc1ccccc1OCC(O)=O,3.231,11,carboxylic_acid,2-Methoxyphenoxyacetic acid,11,carboxylic_acid,11(carboxylic_acid)
COc1cccc(OCC(O)=O)c1,3.142,10,carboxylic_acid,3-Methoxyphenoxyacetic acid,10,carboxylic_acid,10(carboxylic_acid)
COc1ccc(OCC(O)=O)cc1,3.213,9,carboxylic_acid,4-Methoxyphenoxyacetic acid,9,carboxylic_acid,9(carboxylic_acid)
COc1ccc(CC(O)=O)cc1,4.362,8,carboxylic_acid,4-Methoxyphenylacetic acid,8,carboxylic_acid,8(carboxylic_acid)
COc1ccc(CC(O)=O)cc1OC,4.334,8,carboxylic_acid,"3,4-Dimethoxyphenylacetic acid",8,carboxylic_acid,8(carboxylic_acid)
COc1ccccc1C(O)=O,3.87,9,carboxylic_acid,2-Methoxybenzoic acid,9,carboxylic_acid,9(carboxylic_acid)
COc1ccccc1C(O)=O,4.094,9,carboxylic_acid,2-Methoxybenzoic acid,9,carboxylic_acid,9(carboxylic_acid)
COc1cccc(c1)C(O)=O,3.82,9,carboxylic_acid,3-Methoxybenzoic acid,9,carboxylic_acid,9(carboxylic_acid)
COc1cccc(c1)C(O)=O,4.09,9,carboxylic_acid,3-Methoxybenzoic acid,9,carboxylic_acid,9(carboxylic_acid)
COc1ccc(cc1)C(O)=O,4.26,9,carboxylic_acid,4-Methoxybenzoic acid (p-Anisic acid),9,carboxylic_acid,9(carboxylic_acid)
COc1ccc(cc1)C(O)=O,4.475,9,carboxylic_acid,4-Methoxybenzoic acid (p-Anisic acid),9,carboxylic_acid,9(carboxylic_acid)
OC(=O)c1ccccc1Oc2ccccc2,3.527,0,carboxylic_acid,2-Phenoxybenzoic acid,0,carboxylic_acid,0(carboxylic_acid)
OC(=O)c1cccc(Oc2ccccc2)c1,3.951,0,carboxylic_acid,3-Phenoxybenzoic acid,0,carboxylic_acid,0(carboxylic_acid)
OC(=O)c1ccc(Oc2ccccc2)cc1,4.523,0,carboxylic_acid,4-Phenoxybenzoic acid,0,carboxylic_acid,0(carboxylic_acid)
COc1cccc(C(O)=O)c1OC,3.5,8,carboxylic_acid,"2,3-Dimethoxybenzoic acid",8,carboxylic_acid,8(carboxylic_acid)
CSCC(O)=O,3.55,4,carboxylic_acid,(Methylthio)acetic acid,4,carboxylic_acid,4(carboxylic_acid)
CSCC(O)=O,3.61,4,carboxylic_acid,(Methylthio)acetic acid,4,carboxylic_acid,4(carboxylic_acid)
CSCC(O)=O,3.72,4,carboxylic_acid,(Methylthio)acetic acid,4,carboxylic_acid,4(carboxylic_acid)
CCSCC(O)=O,3.6,5,carboxylic_acid,(Ethylthio)acetic acid,5,carboxylic_acid,5(carboxylic_acid)
CCSCC(O)=O,3.65,5,carboxylic_acid,(Ethylthio)acetic acid,5,carboxylic_acid,5(carboxylic_acid)
CCSCC(O)=O,3.62,5,carboxylic_acid,(Ethylthio)acetic acid,5,carboxylic_acid,5(carboxylic_acid)
CCCSCC(O)=O,3.62,6,carboxylic_acid,(Propylthio)acetic acid,6,carboxylic_acid,6(carboxylic_acid)
CCCSCC(O)=O,3.77,6,carboxylic_acid,(Propylthio)acetic acid,6,carboxylic_acid,6(carboxylic_acid)
CCCCSCC(O)=O,3.63,7,carboxylic_acid,(Butylthio)acetic acid,7,carboxylic_acid,7(carboxylic_acid)
CCCCSCC(O)=O,3.81,7,carboxylic_acid,(Butylthio)acetic acid,7,carboxylic_acid,7(carboxylic_acid)
CCCCCSCC(O)=O,3.64,8,carboxylic_acid,(Pentylthio)acetic acid,8,carboxylic_acid,8(carboxylic_acid)
CCCCCCSCC(O)=O,3.65,9,carboxylic_acid,(Hexylthio)acetic acid,9,carboxylic_acid,9(carboxylic_acid)
CC(C)SCC(O)=O,3.65,6,carboxylic_acid,(2-Propylthio)acetic acid,6,carboxylic_acid,6(carboxylic_acid)
CC(C)SCC(O)=O,3.72,6,carboxylic_acid,(2-Propylthio)acetic acid,6,carboxylic_acid,6(carboxylic_acid)
CC(C)(C)SCC(O)=O,3.64,7,carboxylic_acid,(2-Methyl-2-propylthio)acetic acid,7,carboxylic_acid,7(carboxylic_acid)
OC(=O)CSCC=C,3.57,0,carboxylic_acid,(Prop-2-enylthio)acetic acid,0,carboxylic_acid,0(carboxylic_acid)
OC(=O)CSCCC=C,3.61,0,carboxylic_acid,(But-3-enylthio)acetic acid,0,carboxylic_acid,0(carboxylic_acid)
OC(=O)CSCCCC=C,3.63,0,carboxylic_acid,(Pent-4-enylthio)acetic acid,0,carboxylic_acid,0(carboxylic_acid)
OC(=O)CSCc1ccccc1,3.6,0,carboxylic_acid,(Benzylthio)acetic acid,0,carboxylic_acid,0(carboxylic_acid)
OC(=O)CSCc1ccccc1,3.73,0,carboxylic_acid,(Benzylthio)acetic acid,0,carboxylic_acid,0(carboxylic_acid)
OC(=O)CSc1ccccc1,3.33,0,carboxylic_acid,(Phenylthio)acetic acid,0,carboxylic_acid,0(carboxylic_acid)
OC(=O)CSc1ccccc1,3.29,0,carboxylic_acid,(Phenylthio)acetic acid,0,carboxylic_acid,0(carboxylic_acid)
Cc1ccccc1SCC(O)=O,3.27,10,carboxylic_acid,(2-Methylphenylthio)acetic acid,10,carboxylic_acid,10(carboxylic_acid)
Cc1cccc(SCC(O)=O)c1,3.28,9,carboxylic_acid,(3-Methylphenylthio)acetic acid,9,carboxylic_acid,9(carboxylic_acid)
Cc1ccc(SCC(O)=O)cc1,3.34,8,carboxylic_acid,(4-Methylphenylthio)acetic acid,8,carboxylic_acid,8(carboxylic_acid)
OC(=O)CSc1ccc(Br)cc1,3.22,0,carboxylic_acid,(4-Bromophenylthio)acetic acid,0,carboxylic_acid,0(carboxylic_acid)
OC(=O)CSc1cccc(c1)C(F)(F)F,3.19,0,carboxylic_acid,(3-Trifluoromethylphenylthio)acetic acid,0,carboxylic_acid,0(carboxylic_acid)
OC(=O)CSc1ccc(cc1)C#N,3.01,20,nitrile,(4-Cyanophenylthio)acetic acid,20,nitrile,20(nitrile)
OC(=O)CSc1ccccc1[N+]([O-])=O,2.99,16,n_oxide,(2-Nitrophenylthio)acetic acid,16,n_oxide,16(n_oxide)
OC(=O)CSc1ccc(cc1)[N+]([O-])=O,2.98,18,n_oxide,(4-Nitrophenylthio)acetic acid,18,n_oxide,18(n_oxide)
COc1ccccc1SCC(O)=O,3.48,11,carboxylic_acid,(2-Methoxyphenylthio)acetic acid,11,carboxylic_acid,11(carboxylic_acid)
COc1cccc(SCC(O)=O)c1,3.28,10,carboxylic_acid,(3-Methoxyphenylthio)acetic acid,10,carboxylic_acid,10(carboxylic_acid)
COc1ccc(SCC(O)=O)cc1,3.43,9,carboxylic_acid,(4-Methoxyphenylthio)acetic acid,9,carboxylic_acid,9(carboxylic_acid)
OC(=O)CSCCc1ccccc1,3.8,0,carboxylic_acid,(2-Phenylethylthio)acetic acid,0,carboxylic_acid,0(carboxylic_acid)
CSc1ccc(cc1)C(O)=O,3.9,9,carboxylic_acid,4-(Methylthio)benzoic acid,9,carboxylic_acid,9(carboxylic_acid)
OC(=O)c1sccc1,3.33,0,carboxylic_acid,Thiole-2-carboxylic acid (2-Thenoic acid),0,carboxylic_acid,0(carboxylic_acid)
OC(=O)c1sccc1,3.38,0,carboxylic_acid,Thiole-2-carboxylic acid (2-Thenoic acid),0,carboxylic_acid,0(carboxylic_acid)
OC(=O)c1sccc1,3.51,0,carboxylic_acid,Thiole-2-carboxylic acid (2-Thenoic acid),0,carboxylic_acid,0(carboxylic_acid)
CCSCCSCC(O)=O,3.61,8,carboxylic_acid,"3,6-Dithiaoctanoic acid",8,carboxylic_acid,8(carboxylic_acid)
CCOC(=O)CSCC(O)=O,3.66,9,carboxylic_acid,Thiodiacetic acid monoethyl ester,9,carboxylic_acid,9(carboxylic_acid)
CC(C)(C)C(C(O)=O)C(O)=O,7.03,6,carboxylic_acid,"2,2-Dimethylpropane-1,1-dicarboxylic acid (t-Butylmalonic acid)",6,carboxylic_acid,6(carboxylic_acid)
CCC(C)C(CC)(C(O)=O)C(O)=O,8.4,8,carboxylic_acid,"4-Methylhexane-3,3-dicarboxylic acid (s-Butylethylmalonic acid)",8,carboxylic_acid,8(carboxylic_acid)
CCCCCCCC(CCCCCCC)(C(O)=O)C(O)=O,7.34,16,carboxylic_acid,"Pentadecane-8,8-dicarboxylic acid (Diheptylmalonic acid)",16,carboxylic_acid,16(carboxylic_acid)
OC(=O)C(Cc1ccccc1)(Cc2ccccc2)C(O)=O,7.75,0,carboxylic_acid,"1,3-Diphenylpropane-2,2-dicarboxylic acid (Dibenzylmalonic acid)",0,carboxylic_acid,0(carboxylic_acid)
CC(=C\C(O)=O)/C(O)=O,4.82,4,carboxylic_acid,"trans-Propene-1,2-dicarboxylic acid (Mesaconic acid)",4,carboxylic_acid,4(carboxylic_acid)
OC(=O)[C@@H]1CC[C@H](CC1)C(O)=O,5.7,0,carboxylic_acid,"trans-Cyclohexane-1,4-dicarboxylic acid",0,carboxylic_acid,0(carboxylic_acid)
OC(=O)[C@@H]1CC[C@H](CC1)C(O)=O,4.65,0,carboxylic_acid,"trans-Cyclohexane-1,4-dicarboxylic acid",0,carboxylic_acid,0(carboxylic_acid)
OC(=O)c1ccccc1c2ccccc2C(O)=O,3.27,0,carboxylic_acid,"Biphenyl-2,2'-dicarboxylic acid (Diphenic acid)",0,carboxylic_acid,0(carboxylic_acid)
OB(O)c1ccccc1,8.67,0,alcohol,Phenylboronic acid,0,alcohol,0(alcohol)
OB(O)c1ccccc1,8.84,0,alcohol,Phenylboronic acid,0,alcohol,0(alcohol)
OB(O)c1cccc(c1)[N+]([O-])=O,6.96,15,n_oxide,3-Nitrophenylboronic acid,15,n_oxide,15(n_oxide)
CCOC[P](O)(O)=O,7.02,4,phosphate,Ethoxymethylphosphonic acid,4,phosphate,4(phosphate)
CO[P](O)(O)=O,6.25,2,phosphate,Phosphoric acid methyl ester (Methyl phosphate),2,phosphate,2(phosphate)
CCCCO[P](O)(O)=O,6.72,5,phosphate,Phosphoric acid butyl ester (Butyl phosphate),5,phosphate,5(phosphate)
[O-][N+](=O)c1ccc(O[P](O)(O)=O)cc1,5.01,8,phosphate,Phosphoric acid 4-nitrophenyl ester (4-Nitrophenyl phosphate),8,phosphate,8(phosphate)
[O-][N+](=O)c1ccc(O[P](O)(O)=O)cc1,5.02,8,phosphate,Phosphoric acid 4-nitrophenyl ester (p-Nitrophenyl phosphate),8,phosphate,8(phosphate)
OCC(O)CO[P](O)(O)=O,6.19,0,alcohol,"Propane-1,2,3-triol-1-(dihydrogenphosphate) (Glycerol-1-phosphate)",0,alcohol,0(alcohol)
OCC(O)CO[P](O)(O)=O,6.22,0,alcohol,"Propane-1,2,3-triol-1-(dihydrogenphosphate) (Glycerol-1-phosphate)",0,alcohol,0(alcohol)
OCC(O)CO[P](O)(O)=O,6.07,0,alcohol,"Propane-1,2,3-triol-1-(dihydrogenphosphate) (Glycerol-1-phosphate)",0,alcohol,0(alcohol)
OCC(O)CO[P](O)(O)=O,5.99,0,alcohol,"Propane-1,2,3-triol-1-(dihydrogenphosphate) (Glycerol-1-phosphate)",0,alcohol,0(alcohol)
OCC(O)CO[P](O)(O)=O,5.94,0,alcohol,"Propane-1,2,3-triol-1-(dihydrogenphosphate) (Glycerol-1-phosphate)",0,alcohol,0(alcohol)
OCC(O)CO[P](O)(O)=O,5.96,0,alcohol,"Propane-1,2,3-triol-1-(dihydrogenphosphate) (Glycerol-1-phosphate)",0,alcohol,0(alcohol)
OCC(O)CO[P](O)(O)=O,6.656,0,alcohol,"Propane-1,2,3-triol-1-(dihydrogenphosphate) (Glycerol-1-phosphate)",0,alcohol,0(alcohol)
OC[C@@H](O)[C@@H](O)[C@H](O)C(=O)CO[P](O)(O)=O,5.84,0,alcohol,D(-)-Fructose-1-dihydrogenphosphate (Fructose-1-phosphate),0,alcohol,0(alcohol)
CCCCO[P]([O-])(=O)OCCCC,1.0,5,phosphate,Phosphoric acid dibutyl ester (Dibutyl phosphate),5,phosphate,5(phosphate)
CO[P]([O-])(=O)O[P]([O-])(=O)O[P](O)(O)=O,6.45,2,phosphate,Triphosphoric acid methyl ester (Methyl triphosphate),2,phosphate,2(phosphate)
CCCC[S](CCCC)[P](O)(O)=S,0.08,9,phosphate,"Phosphorodithioic acid O,O-dibutyl ester (Dibutyldithiophosphoric acid)",9,phosphate,9(phosphate)
CC(C)C[S](CC(C)C)[P](O)(O)=S,0.04,9,phosphate,"Phosphorodithioic acid O,O-bis(2-methylpropyl) ester (Diisobutyldithiophosphoric acid)",9,phosphate,9(phosphate)
C[As](C)(O)=O,6.14,1,arsenic_acid,Dimethylarsinic acid (Cacodylic acid),1,arsenic_acid,1(arsenic_acid)
C[As](C)(O)=O,1.8,1,arsenic_acid,Dimethylarsinic acid (Cacodylic acid),1,arsenic_acid,1(arsenic_acid)
CC[As](O)(=O)CC,6.43,2,arsenic_compound,Diethylarsinic acid,2,arsenic_compound,2(arsenic_compound)
CC[As](O)(=O)CC,1.5,2,arsenic_compound,Diethylarsinic acid,2,arsenic_compound,2(arsenic_compound)
CCC[As](O)(=O)CCC,6.52,3,arsenic_compound,Dipropylarsinic acid,3,arsenic_compound,3(arsenic_compound)
CCC[As](O)(=O)CCC,1.6,3,arsenic_compound,Dipropylarsinic acid,3,arsenic_compound,3(arsenic_compound)
CCCC[As](O)(=O)CCCC,6.53,5,arsenic_acid,Dibutylarsinic acid,5,arsenic_acid,5(arsenic_acid)
CCCC[As](O)(=O)CCCC,1.5,5,arsenic_acid,Dibutylarsinic acid,5,arsenic_acid,5(arsenic_acid)
CCCCC[As](O)(=O)CCCCC,6.54,6,arsenic_acid,Dipentylarsinic acid,6,arsenic_acid,6(arsenic_acid)
CCCCC[As](O)(=O)CCCCC,1.7,6,arsenic_acid,Dipentylarsinic acid,6,arsenic_acid,6(arsenic_acid)
Oc1ccccc1,9.78,0,phenol,Hydroxybenzene (Phenol),0,phenol,0(phenol)
Oc1ccccc1,9.64,0,phenol,Hydroxybenzene (Phenol),0,phenol,0(phenol)
Oc1ccccc1,9.82,0,phenol,Hydroxybenzene (Phenol),0,phenol,0(phenol)
Oc1ccccc1,9.997,0,phenol,Hydroxybenzene (Phenol),0,phenol,0(phenol)
Cc1ccccc1O,10.09,7,phenol,2-Methylphenol (o-Cresol),7,phenol,7(phenol)
Cc1ccccc1O,10.31,7,phenol,2-Methylphenol (o-Cresol),7,phenol,7(phenol)
Cc1cccc(O)c1,10.095,6,phenol,3-Methylphenol (m-Cresol),6,phenol,6(phenol)
Cc1ccc(O)cc1,10.04,5,phenol,4-Methylphenol (p-Cresol),5,phenol,5(phenol)
Cc1ccc(O)cc1,9.87,5,phenol,4-Methylphenol (p-Cresol),5,phenol,5(phenol)
Cc1ccc(O)cc1,10.269,5,phenol,4-Methylphenol (p-Cresol),5,phenol,5(phenol)
CCc1cccc(O)c1,10.069,7,phenol,3-Ethylphenol,7,phenol,7(phenol)
CCCc1ccccc1O,10.5,9,phenol,2-(Propyl)phenol,9,phenol,9(phenol)
CC(C)(C)c1ccc(O)cc1,10.31,8,phenol,4-(2-Methyl-2-propyl)phenol,8,phenol,8(phenol)
Cc1cccc(O)c1C,10.537,6,phenol,"2,3-Dimethylphenol (vic-o-Xylenol)",6,phenol,6(phenol)
Cc1ccc(C)c(O)c1,10.405,7,phenol,"2,5-Dimethylphenol (p-Xylenol)",7,phenol,7(phenol)
Cc1cccc(C)c1O,10.622,8,phenol,"2,6-Dimethylphenol (vic-m-Xylenol)",8,phenol,8(phenol)
Cc1cc(C)cc(O)c1,9.98,7,phenol,"3,5-Dimethylphenol (sym-m-Xylenol)",7,phenol,7(phenol)
Cc1cc(C)cc(O)c1,10.196,7,phenol,"3,5-Dimethylphenol (sym-m-Xylenol)",7,phenol,7(phenol)
Cc1cc(C)c(C)c(O)c1,10.67,8,phenol,"2,3,5-Trimethylphenol",8,phenol,8(phenol)
Cc1cc(C)c(O)cc1C,10.57,6,phenol,"2,4,5-Trimethylphenol",6,phenol,6(phenol)
Cc1cc(C)c(O)c(C)c1,10.89,6,phenol,"2,4,6-Trimethylphenol",6,phenol,6(phenol)
Cc1cc(O)cc(C)c1C,10.25,4,phenol,"3,4,5-Trimethylphenol",4,phenol,4(phenol)
Oc1ccccc1CC=C,10.27,0,phenol,2-Allylphenol,0,phenol,0(phenol)
Oc1ccc(CC=C)cc1,10.23,0,phenol,4-Allylphenol (Chavicol),0,phenol,0(phenol)
Oc1ccccc1F,8.49,0,phenol,2-Fluorophenol,0,phenol,0(phenol)
Oc1ccccc1F,8.705,0,phenol,2-Fluorophenol,0,phenol,0(phenol)
Oc1cccc(F)c1,8.81,0,phenol,3-Fluorophenol,0,phenol,0(phenol)
Oc1cccc(F)c1,9.206,0,phenol,3-Fluorophenol,0,phenol,0(phenol)
Oc1ccc(F)cc1,9.46,0,phenol,4-Fluorophenol,0,phenol,0(phenol)
Oc1ccc(F)cc1,9.908,0,phenol,4-Fluorophenol,0,phenol,0(phenol)
Oc1ccccc1Br,8.22,0,phenol,2-Bromophenol,0,phenol,0(phenol)
Oc1ccccc1Br,8.444,0,phenol,2-Bromophenol,0,phenol,0(phenol)
Oc1cccc(Br)c1,8.75,0,phenol,3-Bromophenol,0,phenol,0(phenol)
Oc1cccc(Br)c1,9.031,0,phenol,3-Bromophenol,0,phenol,0(phenol)
Oc1ccc(Br)cc1,9.08,0,phenol,4-Bromophenol,0,phenol,0(phenol)
Oc1ccc(Br)cc1,9.02,0,phenol,4-Bromophenol,0,phenol,0(phenol)