SMILES,pKa,Dissociable_Atoms,Functional_Group,Name,Equilibrium,Ionic,Temperature,Dissociable_Atoms_Ordered,Functional_Group_Ordered,Dissociation_Order,Dissociating_Group,Functional_Group_pKa_Ranges
CCOC(=O)CNC(=O)CNC(=O)[C@H](Cc1c[nH]cn1)NC(=O)CNC(=O)CN,6.01,28:6,amine_primary:amine_secondary,Glycylglycyl-L-histidylglycylglycine ethyl ester,[H₂L]/[HL][H],0.15,37.0,28:6,amine_primary:amine_secondary,28(amine_primary) > 6(amine_secondary),amine_primary,amine_primary(9.0~11.0); amine_secondary(9.5~11.5)
[nH]1cnc2cccnc12,4.1,7,pyridine_nitrogen,"Pyridino[2,3-d]-1,3-diazole (4-Azabenzimidazole)",[HL]/[L][H],0.5,25.0,7,pyridine_nitrogen,7(pyridine_nitrogen),Unknown,pyridine_nitrogen(Unknown)
[nH]1ccnc1c2ccccn2,5.47,10,pyridine_nitrogen,2-(2-Pyridyl)imidazole,[HL]/[L][H],0.1,25.0,10,pyridine_nitrogen,10(pyridine_nitrogen),Unknown,pyridine_nitrogen(Unknown)
[nH]1cnc(c1)c2ccccn2,5.49,10,pyridine_nitrogen,4-(2-Pyridyl)imidazole,[HL]/[L][H],0.1,25.0,10,pyridine_nitrogen,10(pyridine_nitrogen),Unknown,pyridine_nitrogen(Unknown)
C(c1[nH]ccn1)c2[nH]ccn2,6.87,10:21,heterocyclic_nitrogen:heterocyclic_nitrogen,Bis(2-imidazolyl)methane,[HL]/[L][H],0.1,25.0,10:21,heterocyclic_nitrogen:heterocyclic_nitrogen,10(heterocyclic_nitrogen) > 21(heterocyclic_nitrogen),Unknown,heterocyclic_nitrogen(Unknown); heterocyclic_nitrogen(Unknown)
C(c1[nH]ccn1)c2[nH]ccn2,6.69,10:21,heterocyclic_nitrogen:heterocyclic_nitrogen,Bis(2-imidazolyl)methane,[HL]/[L][H],0.1,35.0,10:21,heterocyclic_nitrogen:heterocyclic_nitrogen,10(heterocyclic_nitrogen) > 21(heterocyclic_nitrogen),Unknown,heterocyclic_nitrogen(Unknown); heterocyclic_nitrogen(Unknown)
C(c1[nH]ccn1)c2[nH]ccn2,4.66,10:21,heterocyclic_nitrogen:heterocyclic_nitrogen,Bis(2-imidazolyl)methane,[H₂L]/[HL][H],0.1,25.0,10:21,heterocyclic_nitrogen:heterocyclic_nitrogen,10(heterocyclic_nitrogen) > 21(heterocyclic_nitrogen),Unknown,heterocyclic_nitrogen(Unknown); heterocyclic_nitrogen(Unknown)
C(c1[nH]ccn1)c2[nH]ccn2,4.38,10:21,heterocyclic_nitrogen:heterocyclic_nitrogen,Bis(2-imidazolyl)methane,[H₂L]/[HL][H],0.1,35.0,10:21,heterocyclic_nitrogen:heterocyclic_nitrogen,10(heterocyclic_nitrogen) > 21(heterocyclic_nitrogen),Unknown,heterocyclic_nitrogen(Unknown); heterocyclic_nitrogen(Unknown)
C(CNCc1c[nH]cn1)NCc2c[nH]cn2,9.05,2:6:9:13,amine_secondary:amine_secondary:amine_secondary:amine_secondary,"N,N'-Bis(4-imidazolylmethyl)ethylenediamine",[HL]/[L][H],0.1,25.0,2:6:9:13,amine_secondary:amine_secondary:amine_secondary:amine_secondary,2(amine_secondary) > 6(amine_secondary) > 9(amine_secondary) > 13(amine_secondary),amine_secondary,amine_secondary(9.5~11.5); amine_secondary(9.5~11.5); amine_secondary(9.5~11.5); amine_secondary(9.5~11.5)
C(CNCc1c[nH]cn1)NCc2c[nH]cn2,6.56,2:6:9:13,amine_secondary:amine_secondary:amine_secondary:amine_secondary,"N,N'-Bis(4-imidazolylmethyl)ethylenediamine",[H₂L]/[HL][H],0.1,25.0,2:6:9:13,amine_secondary:amine_secondary:amine_secondary:amine_secondary,2(amine_secondary) > 6(amine_secondary) > 9(amine_secondary) > 13(amine_secondary),amine_secondary,amine_secondary(9.5~11.5); amine_secondary(9.5~11.5); amine_secondary(9.5~11.5); amine_secondary(9.5~11.5)
C(CNCc1c[nH]cn1)NCc2c[nH]cn2,4.26,2:6:9:13,amine_secondary:amine_secondary:amine_secondary:amine_secondary,"N,N'-Bis(4-imidazolylmethyl)ethylenediamine",[H₃L]/[H₂L][H],0.1,25.0,2:6:9:13,amine_secondary:amine_secondary:amine_secondary:amine_secondary,2(amine_secondary) > 6(amine_secondary) > 9(amine_secondary) > 13(amine_secondary),amine_secondary,amine_secondary(9.5~11.5); amine_secondary(9.5~11.5); amine_secondary(9.5~11.5); amine_secondary(9.5~11.5)
C(CNCc1c[nH]cn1)NCc2c[nH]cn2,3.21,2:6:9:13,amine_secondary:amine_secondary:amine_secondary:amine_secondary,"N,N'-Bis(4-imidazolylmethyl)ethylenediamine",[H₄L]/[H₃L][H],0.1,25.0,2:6:9:13,amine_secondary:amine_secondary:amine_secondary:amine_secondary,2(amine_secondary) > 6(amine_secondary) > 9(amine_secondary) > 13(amine_secondary),amine_secondary,amine_secondary(9.5~11.5); amine_secondary(9.5~11.5); amine_secondary(9.5~11.5); amine_secondary(9.5~11.5)
C(COCCNCc1c[nH]cn1)NCc2c[nH]cn2,9.16,5:9:12:16,amine_secondary:amine_secondary:amine_secondary:amine_secondary,"1,9-Di-4-imidazolyl-5-oxa-2,8-diazanonane",[HL]/[L][H],0.1,25.0,5:9:12:16,amine_secondary:amine_secondary:amine_secondary:amine_secondary,5(amine_secondary) > 9(amine_secondary) > 12(amine_secondary) > 16(amine_secondary),amine_secondary,amine_secondary(9.5~11.5); amine_secondary(9.5~11.5); amine_secondary(9.5~11.5); amine_secondary(9.5~11.5)
C(COCCNCc1c[nH]cn1)NCc2c[nH]cn2,8.17,5:9:12:16,amine_secondary:amine_secondary:amine_secondary:amine_secondary,"1,9-Di-4-imidazolyl-5-oxa-2,8-diazanonane",[H₂L]/[HL][H],0.1,25.0,5:9:12:16,amine_secondary:amine_secondary:amine_secondary:amine_secondary,5(amine_secondary) > 9(amine_secondary) > 12(amine_secondary) > 16(amine_secondary),amine_secondary,amine_secondary(9.5~11.5); amine_secondary(9.5~11.5); amine_secondary(9.5~11.5); amine_secondary(9.5~11.5)
C(COCCNCc1c[nH]cn1)NCc2c[nH]cn2,4.66,5:9:12:16,amine_secondary:amine_secondary:amine_secondary:amine_secondary,"1,9-Di-4-imidazolyl-5-oxa-2,8-diazanonane",[H₃L]/[H₂L][H],0.1,25.0,5:9:12:16,amine_secondary:amine_secondary:amine_secondary:amine_secondary,5(amine_secondary) > 9(amine_secondary) > 12(amine_secondary) > 16(amine_secondary),amine_secondary,amine_secondary(9.5~11.5); amine_secondary(9.5~11.5); amine_secondary(9.5~11.5); amine_secondary(9.5~11.5)
C(COCCNCc1c[nH]cn1)NCc2c[nH]cn2,3.88,5:9:12:16,amine_secondary:amine_secondary:amine_secondary:amine_secondary,"1,9-Di-4-imidazolyl-5-oxa-2,8-diazanonane",[H₄L]/[H₃L][H],0.1,25.0,5:9:12:16,amine_secondary:amine_secondary:amine_secondary:amine_secondary,5(amine_secondary) > 9(amine_secondary) > 12(amine_secondary) > 16(amine_secondary),amine_secondary,amine_secondary(9.5~11.5); amine_secondary(9.5~11.5); amine_secondary(9.5~11.5); amine_secondary(9.5~11.5)
C(CSSCCNCc1c[nH]cn1)NCc2c[nH]cn2,8.74,6:10:13:17,amine_secondary:amine_secondary:amine_secondary:amine_secondary,"1,10-Di-4-imidazolyl-5,6-dithia-2,9-diazadecane",[HL]/[L][H],0.1,25.0,6:10:13:17,amine_secondary:amine_secondary:amine_secondary:amine_secondary,6(amine_secondary) > 10(amine_secondary) > 13(amine_secondary) > 17(amine_secondary),amine_secondary,amine_secondary(9.5~11.5); amine_secondary(9.5~11.5); amine_secondary(9.5~11.5); amine_secondary(9.5~11.5)
C(CSSCCNCc1c[nH]cn1)NCc2c[nH]cn2,7.85,6:10:13:17,amine_secondary:amine_secondary:amine_secondary:amine_secondary,"1,10-Di-4-imidazolyl-5,6-dithia-2,9-diazadecane",[H₂L]/[HL][H],0.1,25.0,6:10:13:17,amine_secondary:amine_secondary:amine_secondary:amine_secondary,6(amine_secondary) > 10(amine_secondary) > 13(amine_secondary) > 17(amine_secondary),amine_secondary,amine_secondary(9.5~11.5); amine_secondary(9.5~11.5); amine_secondary(9.5~11.5); amine_secondary(9.5~11.5)
C(CSSCCNCc1c[nH]cn1)NCc2c[nH]cn2,4.62,6:10:13:17,amine_secondary:amine_secondary:amine_secondary:amine_secondary,"1,10-Di-4-imidazolyl-5,6-dithia-2,9-diazadecane",[H₃L]/[H₂L][H],0.1,25.0,6:10:13:17,amine_secondary:amine_secondary:amine_secondary:amine_secondary,6(amine_secondary) > 10(amine_secondary) > 13(amine_secondary) > 17(amine_secondary),amine_secondary,amine_secondary(9.5~11.5); amine_secondary(9.5~11.5); amine_secondary(9.5~11.5); amine_secondary(9.5~11.5)
C(CSSCCNCc1c[nH]cn1)NCc2c[nH]cn2,3.89,6:10:13:17,amine_secondary:amine_secondary:amine_secondary:amine_secondary,"1,10-Di-4-imidazolyl-5,6-dithia-2,9-diazadecane",[H₄L]/[H₃L][H],0.1,25.0,6:10:13:17,amine_secondary:amine_secondary:amine_secondary:amine_secondary,6(amine_secondary) > 10(amine_secondary) > 13(amine_secondary) > 17(amine_secondary),amine_secondary,amine_secondary(9.5~11.5); amine_secondary(9.5~11.5); amine_secondary(9.5~11.5); amine_secondary(9.5~11.5)
Cc1nsc(N)n1,2.5,9,ring_nitrogen,"5-Amino-3-methyl-1,2,4-thiadiazole",[HL]/[L][H],0.5,25.0,9,ring_nitrogen,9(ring_nitrogen),Unknown,ring_nitrogen(Unknown)
[nH]1ccnn1,9.26,8,pyridine_nitrogen,"1,2,3-Triazole",[HL]/[L][H],0.0,25.0,8,pyridine_nitrogen,8(pyridine_nitrogen),Unknown,pyridine_nitrogen(Unknown)
Brc1[nH]nnc1Br,5.37,2,amine_secondary,"4,5-Dibromo-1,2,3-triazole",[HL]/[L][H],0.0,25.0,2,amine_secondary,2(amine_secondary),amine_secondary,amine_secondary(9.5~11.5)
[nH]1nnc2ccccc12,8.27,0,amine_secondary,Benzotriazole,[HL]/[L][H],0.1,25.0,0,amine_secondary,0(amine_secondary),amine_secondary,amine_secondary(9.5~11.5)
[nH]1nnc2ccccc12,8.35,0,amine_secondary,Benzotriazole,[HL]/[L][H],0.5,25.0,0,amine_secondary,0(amine_secondary),amine_secondary,amine_secondary(9.5~11.5)
[nH]1nnc2ccccc12,8.38,0,amine_secondary,Benzotriazole,[HL]/[L][H],0.0,25.0,0,amine_secondary,0(amine_secondary),amine_secondary,amine_secondary(9.5~11.5)
[nH]1cncn1,9.82,6:8,pyridine_nitrogen:pyridine_nitrogen,"1,2,4-Triazole",[HL]/[L][H],0.1,25.0,6:8,pyridine_nitrogen:pyridine_nitrogen,6(pyridine_nitrogen) > 8(pyridine_nitrogen),Unknown,pyridine_nitrogen(Unknown); pyridine_nitrogen(Unknown)
[nH]1cncn1,9.55,6:8,pyridine_nitrogen:pyridine_nitrogen,"1,2,4-Triazole",[HL]/[L][H],0.15,37.0,6:8,pyridine_nitrogen:pyridine_nitrogen,6(pyridine_nitrogen) > 8(pyridine_nitrogen),Unknown,pyridine_nitrogen(Unknown); pyridine_nitrogen(Unknown)
[nH]1cncn1,9.86,6:8,pyridine_nitrogen:pyridine_nitrogen,"1,2,4-Triazole",[HL]/[L][H],0.5,25.0,6:8,pyridine_nitrogen:pyridine_nitrogen,6(pyridine_nitrogen) > 8(pyridine_nitrogen),Unknown,pyridine_nitrogen(Unknown); pyridine_nitrogen(Unknown)
[nH]1cncn1,9.94,6:8,pyridine_nitrogen:pyridine_nitrogen,"1,2,4-Triazole",[HL]/[L][H],1.0,25.0,6:8,pyridine_nitrogen:pyridine_nitrogen,6(pyridine_nitrogen) > 8(pyridine_nitrogen),Unknown,pyridine_nitrogen(Unknown); pyridine_nitrogen(Unknown)
[nH]1cncn1,10.2,6:8,pyridine_nitrogen:pyridine_nitrogen,"1,2,4-Triazole",[HL]/[L][H],2.0,25.0,6:8,pyridine_nitrogen:pyridine_nitrogen,6(pyridine_nitrogen) > 8(pyridine_nitrogen),Unknown,pyridine_nitrogen(Unknown); pyridine_nitrogen(Unknown)
[nH]1cncn1,10.0,6:8,pyridine_nitrogen:pyridine_nitrogen,"1,2,4-Triazole",[HL]/[L][H],0.0,25.0,6:8,pyridine_nitrogen:pyridine_nitrogen,6(pyridine_nitrogen) > 8(pyridine_nitrogen),Unknown,pyridine_nitrogen(Unknown); pyridine_nitrogen(Unknown)
[nH]1cncn1,2.38,6:8,pyridine_nitrogen:pyridine_nitrogen,"1,2,4-Triazole",[H₂L]/[HL][H],0.1,25.0,6:8,pyridine_nitrogen:pyridine_nitrogen,6(pyridine_nitrogen) > 8(pyridine_nitrogen),Unknown,pyridine_nitrogen(Unknown); pyridine_nitrogen(Unknown)
[nH]1cncn1,2.29,6:8,pyridine_nitrogen:pyridine_nitrogen,"1,2,4-Triazole",[H₂L]/[HL][H],0.15,37.0,6:8,pyridine_nitrogen:pyridine_nitrogen,6(pyridine_nitrogen) > 8(pyridine_nitrogen),Unknown,pyridine_nitrogen(Unknown); pyridine_nitrogen(Unknown)
[nH]1cncn1,2.51,6:8,pyridine_nitrogen:pyridine_nitrogen,"1,2,4-Triazole",[H₂L]/[HL][H],0.5,25.0,6:8,pyridine_nitrogen:pyridine_nitrogen,6(pyridine_nitrogen) > 8(pyridine_nitrogen),Unknown,pyridine_nitrogen(Unknown); pyridine_nitrogen(Unknown)
[nH]1cncn1,2.69,6:8,pyridine_nitrogen:pyridine_nitrogen,"1,2,4-Triazole",[H₂L]/[HL][H],1.0,25.0,6:8,pyridine_nitrogen:pyridine_nitrogen,6(pyridine_nitrogen) > 8(pyridine_nitrogen),Unknown,pyridine_nitrogen(Unknown); pyridine_nitrogen(Unknown)
[nH]1cncn1,2.95,6:8,pyridine_nitrogen:pyridine_nitrogen,"1,2,4-Triazole",[H₂L]/[HL][H],2.0,25.0,6:8,pyridine_nitrogen:pyridine_nitrogen,6(pyridine_nitrogen) > 8(pyridine_nitrogen),Unknown,pyridine_nitrogen(Unknown); pyridine_nitrogen(Unknown)
[nH]1cncn1,2.37,6:8,pyridine_nitrogen:pyridine_nitrogen,"1,2,4-Triazole",[H₂L]/[HL][H],0.0,25.0,6:8,pyridine_nitrogen:pyridine_nitrogen,6(pyridine_nitrogen) > 8(pyridine_nitrogen),Unknown,pyridine_nitrogen(Unknown); pyridine_nitrogen(Unknown)
O=C1NNC(=O)N1,5.69,2,amine_secondary,"1,2,4-Triazolidin-3,5-dione (Urazole)",[HL]/[L][H],0.1,20.0,2,amine_secondary,2(amine_secondary),amine_secondary,amine_secondary(9.5~11.5)
Nc1n[nH]cn1,10.41,0:3,aniline:amine_secondary,"3-Amino-1,2,4-triazole",[HL]/[L][H],0.1,25.0,3:0,amine_secondary:aniline,3(amine_secondary) > 0(aniline),amine_secondary,aniline(Unknown); amine_secondary(9.5~11.5)
Nc1n[nH]cn1,10.2,0:3,aniline:amine_secondary,"3-Amino-1,2,4-triazole",[HL]/[L][H],0.15,37.0,3:0,amine_secondary:aniline,3(amine_secondary) > 0(aniline),amine_secondary,aniline(Unknown); amine_secondary(9.5~11.5)
Nc1n[nH]cn1,10.45,0:3,aniline:amine_secondary,"3-Amino-1,2,4-triazole",[HL]/[L][H],0.5,25.0,3:0,amine_secondary:aniline,3(amine_secondary) > 0(aniline),amine_secondary,aniline(Unknown); amine_secondary(9.5~11.5)
Nc1n[nH]cn1,10.43,0:3,aniline:amine_secondary,"3-Amino-1,2,4-triazole",[HL]/[L][H],1.0,25.0,3:0,amine_secondary:aniline,3(amine_secondary) > 0(aniline),amine_secondary,aniline(Unknown); amine_secondary(9.5~11.5)
Nc1n[nH]cn1,10.57,0:3,aniline:amine_secondary,"3-Amino-1,2,4-triazole",[HL]/[L][H],0.0,25.0,3:0,amine_secondary:aniline,3(amine_secondary) > 0(aniline),amine_secondary,aniline(Unknown); amine_secondary(9.5~11.5)
Nc1n[nH]cn1,4.17,0:3,aniline:amine_secondary,"3-Amino-1,2,4-triazole",[H₂L]/[HL][H],0.1,25.0,3:0,amine_secondary:aniline,3(amine_secondary) > 0(aniline),amine_secondary,aniline(Unknown); amine_secondary(9.5~11.5)
Nc1n[nH]cn1,4.03,0:3,aniline:amine_secondary,"3-Amino-1,2,4-triazole",[H₂L]/[HL][H],0.15,37.0,3:0,amine_secondary:aniline,3(amine_secondary) > 0(aniline),amine_secondary,aniline(Unknown); amine_secondary(9.5~11.5)
Nc1n[nH]cn1,4.33,0:3,aniline:amine_secondary,"3-Amino-1,2,4-triazole",[H₂L]/[HL][H],0.5,25.0,3:0,amine_secondary:aniline,3(amine_secondary) > 0(aniline),amine_secondary,aniline(Unknown); amine_secondary(9.5~11.5)
Nc1n[nH]cn1,4.35,0:3,aniline:amine_secondary,"3-Amino-1,2,4-triazole",[H₂L]/[HL][H],1.0,25.0,3:0,amine_secondary:aniline,3(amine_secondary) > 0(aniline),amine_secondary,aniline(Unknown); amine_secondary(9.5~11.5)
Nc1n[nH]cn1,4.15,0:3,aniline:amine_secondary,"3-Amino-1,2,4-triazole",[H₂L]/[HL][H],0.0,25.0,3:0,amine_secondary:aniline,3(amine_secondary) > 0(aniline),amine_secondary,aniline(Unknown); amine_secondary(9.5~11.5)
[nH]1cnnn1,4.9,8,pyridine_nitrogen,Tetrazole,[HL]/[L][H],0.0,25.0,8,pyridine_nitrogen,8(pyridine_nitrogen),Unknown,pyridine_nitrogen(Unknown)
Cc1[nH]nnn1,5.32,9,ring_nitrogen,5-Methyltetrazole,[HL]/[L][H],0.5,25.0,9,ring_nitrogen,9(ring_nitrogen),Unknown,ring_nitrogen(Unknown)
Cc1[nH]nnn1,5.63,9,ring_nitrogen,5-Methyltetrazole,[HL]/[L][H],0.0,25.0,9,ring_nitrogen,9(ring_nitrogen),Unknown,ring_nitrogen(Unknown)
C1CC1c2[nH]nnn2,5.41,13,ring_nitrogen,5-Cyclopropyltetrazole,[HL]/[L][H],0.0,25.0,13,ring_nitrogen,13(ring_nitrogen),Unknown,ring_nitrogen(Unknown)
[nH]1nnnc1c2ccccc2,4.38,0,amine_secondary,5-Phenyltetrazole,[HL]/[L][H],0.0,25.0,0,amine_secondary,0(amine_secondary),amine_secondary,amine_secondary(9.5~11.5)
FC(F)(F)c1[nH]nnn1,1.7,16,ring_nitrogen,5-Trifluoromethyltetrazole,[HL]/[L][H],0.0,25.0,16,ring_nitrogen,16(ring_nitrogen),Unknown,ring_nitrogen(Unknown)
Oc1[nH]nnn1,10.26,0:2,phenol:amine_secondary,5-Hydroxytetrazole,[HL]/[L][H],0.0,25.0,0:2,phenol:amine_secondary,0(phenol) > 2(amine_secondary),amine_secondary,phenol(8.0~11.0); amine_secondary(9.5~11.5)
Oc1[nH]nnn1,5.4,0:2,phenol:amine_secondary,5-Hydroxytetrazole,[H₂L]/[HL][H],0.0,25.0,0:2,phenol:amine_secondary,0(phenol) > 2(amine_secondary),phenol,phenol(8.0~11.0); amine_secondary(9.5~11.5)
[nH]1nnnc1Oc2ccccc2,3.49,0,amine_secondary,5-Phenoxytetrazole,[HL]/[L][H],0.0,25.0,0,amine_secondary,0(amine_secondary),amine_secondary,amine_secondary(9.5~11.5)
CSc1[nH]nnn1,4.0,10,ring_nitrogen,5-Methylthiotetrazole,[HL]/[L][H],0.0,25.0,10,ring_nitrogen,10(ring_nitrogen),Unknown,ring_nitrogen(Unknown)
OC(=O)c1cnccn1,2.82,12,heterocyclic_nitrogen,"1,4-Diazine-2-carboxylic acid (Pyrazinecarboxylic acid)",[HL]/[L][H],0.1,25.0,12,heterocyclic_nitrogen,12(heterocyclic_nitrogen),Unknown,heterocyclic_nitrogen(Unknown)
OC(=O)c1cnccn1,2.7,12,heterocyclic_nitrogen,"1,4-Diazine-2-carboxylic acid (Pyrazinecarboxylic acid)",[HL]/[L][H],0.5,25.0,12,heterocyclic_nitrogen,12(heterocyclic_nitrogen),Unknown,heterocyclic_nitrogen(Unknown)
OC(=O)c1cnccn1,2.73,12,heterocyclic_nitrogen,"1,4-Diazine-2-carboxylic acid (Pyrazinecarboxylic acid)",[HL]/[L][H],1.0,25.0,12,heterocyclic_nitrogen,12(heterocyclic_nitrogen),Unknown,heterocyclic_nitrogen(Unknown)
OC(=O)c1cnccn1,0.5,12,heterocyclic_nitrogen,"1,4-Diazine-2-carboxylic acid (Pyrazinecarboxylic acid)",[H₂L]/[HL][H],3.0,25.0,12,heterocyclic_nitrogen,12(heterocyclic_nitrogen),Unknown,heterocyclic_nitrogen(Unknown)
OC(=O)c1nccnc1C(O)=O,3.25,0:10,carboxylic_acid:carboxylic_acid,"1,4-Diazine-2,3-dicarboxylic acid",[HL]/[L][H],0.5,25.0,0:10,carboxylic_acid:carboxylic_acid,0(carboxylic_acid) > 10(carboxylic_acid),carboxylic_acid,carboxylic_acid(1.5~5.0); carboxylic_acid(1.5~5.0)
OC(=O)c1nccnc1C(O)=O,2.84,0:10,carboxylic_acid:carboxylic_acid,"1,4-Diazine-2,3-dicarboxylic acid",[HL]/[L][H],1.0,25.0,0:10,carboxylic_acid:carboxylic_acid,0(carboxylic_acid) > 10(carboxylic_acid),carboxylic_acid,carboxylic_acid(1.5~5.0); carboxylic_acid(1.5~5.0)
OC(=O)c1nccnc1C(O)=O,1.5,0:10,carboxylic_acid:carboxylic_acid,"1,4-Diazine-2,3-dicarboxylic acid",[H₂L]/[HL][H],0.5,25.0,0:10,carboxylic_acid:carboxylic_acid,0(carboxylic_acid) > 10(carboxylic_acid),carboxylic_acid,carboxylic_acid(1.5~5.0); carboxylic_acid(1.5~5.0)
c1ccncc1,5.24,3,pyridine_nitrogen,Pyridine (Azine),[HL]/[L][H],0.1,25.0,3,pyridine_nitrogen,3(pyridine_nitrogen),Unknown,pyridine_nitrogen(Unknown)
c1ccncc1,5.12,3,pyridine_nitrogen,Pyridine (Azine),[HL]/[L][H],0.15,37.0,3,pyridine_nitrogen,3(pyridine_nitrogen),Unknown,pyridine_nitrogen(Unknown)
c1ccncc1,5.22,3,pyridine_nitrogen,Pyridine (Azine),[HL]/[L][H],0.5,25.0,3,pyridine_nitrogen,3(pyridine_nitrogen),Unknown,pyridine_nitrogen(Unknown)
c1ccncc1,5.24,3,pyridine_nitrogen,Pyridine (Azine),[HL]/[L][H],0.5,25.0,3,pyridine_nitrogen,3(pyridine_nitrogen),Unknown,pyridine_nitrogen(Unknown)
c1ccncc1,5.34,3,pyridine_nitrogen,Pyridine (Azine),[HL]/[L][H],0.5,25.0,3,pyridine_nitrogen,3(pyridine_nitrogen),Unknown,pyridine_nitrogen(Unknown)
c1ccncc1,5.45,3,pyridine_nitrogen,Pyridine (Azine),[HL]/[L][H],0.5,25.0,3,pyridine_nitrogen,3(pyridine_nitrogen),Unknown,pyridine_nitrogen(Unknown)
c1ccncc1,5.19,3,pyridine_nitrogen,Pyridine (Azine),[HL]/[L][H],1.0,25.0,3,pyridine_nitrogen,3(pyridine_nitrogen),Unknown,pyridine_nitrogen(Unknown)
c1ccncc1,5.48,3,pyridine_nitrogen,Pyridine (Azine),[HL]/[L][H],1.0,25.0,3,pyridine_nitrogen,3(pyridine_nitrogen),Unknown,pyridine_nitrogen(Unknown)
c1ccncc1,5.64,3,pyridine_nitrogen,Pyridine (Azine),[HL]/[L][H],1.0,25.0,3,pyridine_nitrogen,3(pyridine_nitrogen),Unknown,pyridine_nitrogen(Unknown)
c1ccncc1,5.2,3,pyridine_nitrogen,Pyridine (Azine),[HL]/[L][H],0.0,25.0,3,pyridine_nitrogen,3(pyridine_nitrogen),Unknown,pyridine_nitrogen(Unknown)
Cc1ccccn1,5.96,6,pyridine_nitrogen,2-Methylpyridine (2-Picoline),[HL]/[L][H],0.1,25.0,6,pyridine_nitrogen,6(pyridine_nitrogen),Unknown,pyridine_nitrogen(Unknown)
Cc1ccccn1,6.05,6,pyridine_nitrogen,2-Methylpyridine (2-Picoline),[HL]/[L][H],0.5,25.0,6,pyridine_nitrogen,6(pyridine_nitrogen),Unknown,pyridine_nitrogen(Unknown)
Cc1ccccn1,5.95,6,pyridine_nitrogen,2-Methylpyridine (2-Picoline),[HL]/[L][H],0.0,25.0,6,pyridine_nitrogen,6(pyridine_nitrogen),Unknown,pyridine_nitrogen(Unknown)
CCc1ccccn1,6.1,7,pyridine_nitrogen,2-Ethylpyridine,[HL]/[L][H],0.5,25.0,7,pyridine_nitrogen,7(pyridine_nitrogen),Unknown,pyridine_nitrogen(Unknown)
CCc1ccccn1,5.97,7,pyridine_nitrogen,2-Ethylpyridine,[HL]/[L][H],0.0,25.0,7,pyridine_nitrogen,7(pyridine_nitrogen),Unknown,pyridine_nitrogen(Unknown)
CCCc1ccccn1,6.14,8,pyridine_nitrogen,2-(Propyl)pyridine,[HL]/[L][H],0.5,25.0,8,pyridine_nitrogen,8(pyridine_nitrogen),Unknown,pyridine_nitrogen(Unknown)
CCCc1ccccn1,5.97,8,pyridine_nitrogen,2-(Propyl)pyridine,[HL]/[L][H],0.0,25.0,8,pyridine_nitrogen,8(pyridine_nitrogen),Unknown,pyridine_nitrogen(Unknown)
Cc1cccnc1,5.72,5,pyridine_nitrogen,3-Methylpyridine (3-Picoline),[HL]/[L][H],0.1,25.0,5,pyridine_nitrogen,5(pyridine_nitrogen),Unknown,pyridine_nitrogen(Unknown)