SMILES,pKa,Dissociable_Atoms,Functional_Group,Name,Equilibrium,Ionic,Temperature,Dissociable_Atoms_Ordered,Functional_Group_Ordered,Dissociation_Order,Dissociating_Group,Functional_Group_pKa_Ranges
NCC(N)CN,9.55,0:3:5,amine_primary:amine_primary:amine_primary,"1,2,3-Triaminopropane",[HL]/[L][H],0.1,25.0,0:3:5,amine_primary:amine_primary:amine_primary,0(amine_primary) > 3(amine_primary) > 5(amine_primary),amine_primary,amine_primary(9.0~11.0); amine_primary(9.0~11.0); amine_primary(9.0~11.0)
NCC(N)CN,9.63,0:3:5,amine_primary:amine_primary:amine_primary,"1,2,3-Triaminopropane",[HL]/[L][H],0.5,20.0,0:3:5,amine_primary:amine_primary:amine_primary,0(amine_primary) > 3(amine_primary) > 5(amine_primary),amine_primary,amine_primary(9.0~11.0); amine_primary(9.0~11.0); amine_primary(9.0~11.0)
NCC(N)CN,7.9,0:3:5,amine_primary:amine_primary:amine_primary,"1,2,3-Triaminopropane",[H₂L]/[HL][H],0.1,25.0,0:3:5,amine_primary:amine_primary:amine_primary,0(amine_primary) > 3(amine_primary) > 5(amine_primary),amine_primary,amine_primary(9.0~11.0); amine_primary(9.0~11.0); amine_primary(9.0~11.0)
NCC(N)CN,8.08,0:3:5,amine_primary:amine_primary:amine_primary,"1,2,3-Triaminopropane",[H₂L]/[HL][H],0.5,20.0,0:3:5,amine_primary:amine_primary:amine_primary,0(amine_primary) > 3(amine_primary) > 5(amine_primary),amine_primary,amine_primary(9.0~11.0); amine_primary(9.0~11.0); amine_primary(9.0~11.0)
NCC(N)CN,3.66,0:3:5,amine_primary:amine_primary:amine_primary,"1,2,3-Triaminopropane",[H₃L]/[H₂L][H],0.1,25.0,0:3:5,amine_primary:amine_primary:amine_primary,0(amine_primary) > 3(amine_primary) > 5(amine_primary),amine_primary,amine_primary(9.0~11.0); amine_primary(9.0~11.0); amine_primary(9.0~11.0)
NCC(N)CN,3.99,0:3:5,amine_primary:amine_primary:amine_primary,"1,2,3-Triaminopropane",[H₃L]/[H₂L][H],0.5,20.0,0:3:5,amine_primary:amine_primary:amine_primary,0(amine_primary) > 3(amine_primary) > 5(amine_primary),amine_primary,amine_primary(9.0~11.0); amine_primary(9.0~11.0); amine_primary(9.0~11.0)
CC(C)(N)CNC1CCCCC1,10.18,3:5,amine_primary:amine_secondary,"2-(Cyclohexylaminomethyl)-2-propylamine (N-Cyclohexyl-2,2-dimethylethylenediamine)",[HL]/[L][H],0.1,20.0,3:5,amine_primary:amine_secondary,3(amine_primary) > 5(amine_secondary),amine_primary,amine_primary(9.0~11.0); amine_secondary(9.5~11.5)
CC(C)(N)CNC1CCCCC1,6.77,3:5,amine_primary:amine_secondary,"2-(Cyclohexylaminomethyl)-2-propylamine (N-Cyclohexyl-2,2-dimethylethylenediamine)",[H₂L]/[HL][H],0.1,20.0,3:5,amine_primary:amine_secondary,3(amine_primary) > 5(amine_secondary),amine_primary,amine_primary(9.0~11.0); amine_secondary(9.5~11.5)
NCCNCc1ccccc1,9.41,0:3,amine_primary:amine_secondary,N-Benzylethylenediamine,[HL]/[L][H],0.1,25.0,0:3,amine_primary:amine_secondary,0(amine_primary) > 3(amine_secondary),amine_primary,amine_primary(9.0~11.0); amine_secondary(9.5~11.5)
NCCNCc1ccccc1,6.48,0:3,amine_primary:amine_secondary,N-Benzylethylenediamine,[H₂L]/[HL][H],0.1,25.0,0:3,amine_primary:amine_secondary,0(amine_primary) > 3(amine_secondary),amine_primary,amine_primary(9.0~11.0); amine_secondary(9.5~11.5)
Cc1ccc(CNCCN)cc1,9.41,6:9,amine_secondary:amine_primary,N-(4-Methylbenzyl)ethylenediamine,[HL]/[L][H],0.1,25.0,9:6,amine_primary:amine_secondary,9(amine_primary) > 6(amine_secondary),amine_primary,amine_secondary(9.5~11.5); amine_primary(9.0~11.0)
Cc1ccc(CNCCN)cc1,6.51,6:9,amine_secondary:amine_primary,N-(4-Methylbenzyl)ethylenediamine,[H₂L]/[HL][H],0.1,25.0,9:6,amine_primary:amine_secondary,9(amine_primary) > 6(amine_secondary),amine_primary,amine_secondary(9.5~11.5); amine_primary(9.0~11.0)
NCCNCCc1ccccc1,9.44,0:3,amine_primary:amine_secondary,N-(2-Phenylethyl)ethylenediamine,[HL]/[L][H],0.1,25.0,0:3,amine_primary:amine_secondary,0(amine_primary) > 3(amine_secondary),amine_primary,amine_primary(9.0~11.0); amine_secondary(9.5~11.5)
NCCNCCc1ccccc1,6.59,0:3,amine_primary:amine_secondary,N-(2-Phenylethyl)ethylenediamine,[H₂L]/[HL][H],0.1,25.0,0:3,amine_primary:amine_secondary,0(amine_primary) > 3(amine_secondary),amine_primary,amine_primary(9.0~11.0); amine_secondary(9.5~11.5)
CNCCNC,10.05,1:4,amine_secondary:amine_secondary,"N,N'-Dimethylethylenediamine",[HL]/[L][H],0.1,25.0,1:4,amine_secondary:amine_secondary,1(amine_secondary) > 4(amine_secondary),amine_secondary,amine_secondary(9.5~11.5); amine_secondary(9.5~11.5)
CNCCNC,10.16,1:4,amine_secondary:amine_secondary,"N,N'-Dimethylethylenediamine",[HL]/[L][H],0.5,25.0,1:4,amine_secondary:amine_secondary,1(amine_secondary) > 4(amine_secondary),amine_secondary,amine_secondary(9.5~11.5); amine_secondary(9.5~11.5)
CNCCNC,10.34,1:4,amine_secondary:amine_secondary,"N,N'-Dimethylethylenediamine",[HL]/[L][H],1.0,25.0,1:4,amine_secondary:amine_secondary,1(amine_secondary) > 4(amine_secondary),amine_secondary,amine_secondary(9.5~11.5); amine_secondary(9.5~11.5)
CNCCNC,10.77,1:4,amine_secondary:amine_secondary,"N,N'-Dimethylethylenediamine",[HL]/[L][H],2.0,25.0,1:4,amine_secondary:amine_secondary,1(amine_secondary) > 4(amine_secondary),amine_secondary,amine_secondary(9.5~11.5); amine_secondary(9.5~11.5)
CNCCNC,10.03,1:4,amine_secondary:amine_secondary,"N,N'-Dimethylethylenediamine",[HL]/[L][H],0.0,25.0,1:4,amine_secondary:amine_secondary,1(amine_secondary) > 4(amine_secondary),amine_secondary,amine_secondary(9.5~11.5); amine_secondary(9.5~11.5)
CNCCNC,7.04,1:4,amine_secondary:amine_secondary,"N,N'-Dimethylethylenediamine",[H₂L]/[HL][H],0.1,25.0,1:4,amine_secondary:amine_secondary,1(amine_secondary) > 4(amine_secondary),amine_secondary,amine_secondary(9.5~11.5); amine_secondary(9.5~11.5)
CNCCNC,7.3,1:4,amine_secondary:amine_secondary,"N,N'-Dimethylethylenediamine",[H₂L]/[HL][H],0.5,25.0,1:4,amine_secondary:amine_secondary,1(amine_secondary) > 4(amine_secondary),amine_secondary,amine_secondary(9.5~11.5); amine_secondary(9.5~11.5)
CNCCNC,7.52,1:4,amine_secondary:amine_secondary,"N,N'-Dimethylethylenediamine",[H₂L]/[HL][H],1.0,25.0,1:4,amine_secondary:amine_secondary,1(amine_secondary) > 4(amine_secondary),amine_secondary,amine_secondary(9.5~11.5); amine_secondary(9.5~11.5)
CNCCNC,7.91,1:4,amine_secondary:amine_secondary,"N,N'-Dimethylethylenediamine",[H₂L]/[HL][H],2.0,25.0,1:4,amine_secondary:amine_secondary,1(amine_secondary) > 4(amine_secondary),amine_secondary,amine_secondary(9.5~11.5); amine_secondary(9.5~11.5)
CNCCNC,6.8,1:4,amine_secondary:amine_secondary,"N,N'-Dimethylethylenediamine",[H₂L]/[HL][H],0.0,25.0,1:4,amine_secondary:amine_secondary,1(amine_secondary) > 4(amine_secondary),amine_secondary,amine_secondary(9.5~11.5); amine_secondary(9.5~11.5)
CCNCCNCC,10.16,2:5,amine_secondary:amine_secondary,"N,N'-Diethylethylenediamine",[HL]/[L][H],0.1,25.0,2:5,amine_secondary:amine_secondary,2(amine_secondary) > 5(amine_secondary),amine_secondary,amine_secondary(9.5~11.5); amine_secondary(9.5~11.5)
CCNCCNCC,10.32,2:5,amine_secondary:amine_secondary,"N,N'-Diethylethylenediamine",[HL]/[L][H],0.5,25.0,2:5,amine_secondary:amine_secondary,2(amine_secondary) > 5(amine_secondary),amine_secondary,amine_secondary(9.5~11.5); amine_secondary(9.5~11.5)
CCNCCNCC,10.5,2:5,amine_secondary:amine_secondary,"N,N'-Diethylethylenediamine",[HL]/[L][H],1.0,25.0,2:5,amine_secondary:amine_secondary,2(amine_secondary) > 5(amine_secondary),amine_secondary,amine_secondary(9.5~11.5); amine_secondary(9.5~11.5)
CCNCCNCC,10.88,2:5,amine_secondary:amine_secondary,"N,N'-Diethylethylenediamine",[HL]/[L][H],2.0,25.0,2:5,amine_secondary:amine_secondary,2(amine_secondary) > 5(amine_secondary),amine_secondary,amine_secondary(9.5~11.5); amine_secondary(9.5~11.5)
CCNCCNCC,10.1,2:5,amine_secondary:amine_secondary,"N,N'-Diethylethylenediamine",[HL]/[L][H],0.0,25.0,2:5,amine_secondary:amine_secondary,2(amine_secondary) > 5(amine_secondary),amine_secondary,amine_secondary(9.5~11.5); amine_secondary(9.5~11.5)
CCNCCNCC,7.28,2:5,amine_secondary:amine_secondary,"N,N'-Diethylethylenediamine",[H₂L]/[HL][H],0.1,25.0,2:5,amine_secondary:amine_secondary,2(amine_secondary) > 5(amine_secondary),amine_secondary,amine_secondary(9.5~11.5); amine_secondary(9.5~11.5)
CCNCCNCC,7.5,2:5,amine_secondary:amine_secondary,"N,N'-Diethylethylenediamine",[H₂L]/[HL][H],0.5,25.0,2:5,amine_secondary:amine_secondary,2(amine_secondary) > 5(amine_secondary),amine_secondary,amine_secondary(9.5~11.5); amine_secondary(9.5~11.5)
CCNCCNCC,7.73,2:5,amine_secondary:amine_secondary,"N,N'-Diethylethylenediamine",[H₂L]/[HL][H],1.0,25.0,2:5,amine_secondary:amine_secondary,2(amine_secondary) > 5(amine_secondary),amine_secondary,amine_secondary(9.5~11.5); amine_secondary(9.5~11.5)
CCNCCNCC,8.06,2:5,amine_secondary:amine_secondary,"N,N'-Diethylethylenediamine",[H₂L]/[HL][H],2.0,25.0,2:5,amine_secondary:amine_secondary,2(amine_secondary) > 5(amine_secondary),amine_secondary,amine_secondary(9.5~11.5); amine_secondary(9.5~11.5)
CCNCCNCC,6.96,2:5,amine_secondary:amine_secondary,"N,N'-Diethylethylenediamine",[H₂L]/[HL][H],0.0,25.0,2:5,amine_secondary:amine_secondary,2(amine_secondary) > 5(amine_secondary),amine_secondary,amine_secondary(9.5~11.5); amine_secondary(9.5~11.5)
CC(C)NCCNC(C)C,10.25,3:6,amine_secondary:amine_secondary,"N,N'-Di-2-propylethylenediamine",[HL]/[L][H],0.7,25.0,3:6,amine_secondary:amine_secondary,3(amine_secondary) > 6(amine_secondary),amine_secondary,amine_secondary(9.5~11.5); amine_secondary(9.5~11.5)
CC(C)NCCNC(C)C,7.44,3:6,amine_secondary:amine_secondary,"N,N'-Di-2-propylethylenediamine",[H₂L]/[HL][H],0.7,25.0,3:6,amine_secondary:amine_secondary,3(amine_secondary) > 6(amine_secondary),amine_secondary,amine_secondary(9.5~11.5); amine_secondary(9.5~11.5)
CCCNCCNCCC,10.12,3:6,amine_secondary:amine_secondary,"N,N'-Dipropylethylenediamine",[HL]/[L][H],0.7,25.0,3:6,amine_secondary:amine_secondary,3(amine_secondary) > 6(amine_secondary),amine_secondary,amine_secondary(9.5~11.5); amine_secondary(9.5~11.5)
CCCNCCNCCC,7.38,3:6,amine_secondary:amine_secondary,"N,N'-Dipropylethylenediamine",[H₂L]/[HL][H],0.7,25.0,3:6,amine_secondary:amine_secondary,3(amine_secondary) > 6(amine_secondary),amine_secondary,amine_secondary(9.5~11.5); amine_secondary(9.5~11.5)
CCCCNCCNCCCC,10.04,4:7,amine_secondary:amine_secondary,"N,N'-Dibutylethylenediamine",[HL]/[L][H],0.7,25.0,4:7,amine_secondary:amine_secondary,4(amine_secondary) > 7(amine_secondary),amine_secondary,amine_secondary(9.5~11.5); amine_secondary(9.5~11.5)
CCCCNCCNCCCC,7.31,4:7,amine_secondary:amine_secondary,"N,N'-Dibutylethylenediamine",[H₂L]/[HL][H],0.7,25.0,4:7,amine_secondary:amine_secondary,4(amine_secondary) > 7(amine_secondary),amine_secondary,amine_secondary(9.5~11.5); amine_secondary(9.5~11.5)
CNCCCNC,10.64,1:5,amine_secondary:amine_secondary,"N,N'-Dimethyltrimethylenediamine",[HL]/[L][H],0.1,25.0,1:5,amine_secondary:amine_secondary,1(amine_secondary) > 5(amine_secondary),amine_secondary,amine_secondary(9.5~11.5); amine_secondary(9.5~11.5)
CNCCCNC,10.81,1:5,amine_secondary:amine_secondary,"N,N'-Dimethyltrimethylenediamine",[HL]/[L][H],0.5,25.0,1:5,amine_secondary:amine_secondary,1(amine_secondary) > 5(amine_secondary),amine_secondary,amine_secondary(9.5~11.5); amine_secondary(9.5~11.5)
CNCCCNC,10.96,1:5,amine_secondary:amine_secondary,"N,N'-Dimethyltrimethylenediamine",[HL]/[L][H],1.0,25.0,1:5,amine_secondary:amine_secondary,1(amine_secondary) > 5(amine_secondary),amine_secondary,amine_secondary(9.5~11.5); amine_secondary(9.5~11.5)
CNCCCNC,11.35,1:5,amine_secondary:amine_secondary,"N,N'-Dimethyltrimethylenediamine",[HL]/[L][H],2.0,25.0,1:5,amine_secondary:amine_secondary,1(amine_secondary) > 5(amine_secondary),amine_secondary,amine_secondary(9.5~11.5); amine_secondary(9.5~11.5)
CNCCCNC,10.6,1:5,amine_secondary:amine_secondary,"N,N'-Dimethyltrimethylenediamine",[HL]/[L][H],0.0,25.0,1:5,amine_secondary:amine_secondary,1(amine_secondary) > 5(amine_secondary),amine_secondary,amine_secondary(9.5~11.5); amine_secondary(9.5~11.5)
CNCCCNC,8.81,1:5,amine_secondary:amine_secondary,"N,N'-Dimethyltrimethylenediamine",[H₂L]/[HL][H],0.1,25.0,1:5,amine_secondary:amine_secondary,1(amine_secondary) > 5(amine_secondary),amine_secondary,amine_secondary(9.5~11.5); amine_secondary(9.5~11.5)
CNCCCNC,9.11,1:5,amine_secondary:amine_secondary,"N,N'-Dimethyltrimethylenediamine",[H₂L]/[HL][H],0.5,25.0,1:5,amine_secondary:amine_secondary,1(amine_secondary) > 5(amine_secondary),amine_secondary,amine_secondary(9.5~11.5); amine_secondary(9.5~11.5)
CNCCCNC,9.26,1:5,amine_secondary:amine_secondary,"N,N'-Dimethyltrimethylenediamine",[H₂L]/[HL][H],1.0,25.0,1:5,amine_secondary:amine_secondary,1(amine_secondary) > 5(amine_secondary),amine_secondary,amine_secondary(9.5~11.5); amine_secondary(9.5~11.5)
CNCCCNC,9.71,1:5,amine_secondary:amine_secondary,"N,N'-Dimethyltrimethylenediamine",[H₂L]/[HL][H],2.0,25.0,1:5,amine_secondary:amine_secondary,1(amine_secondary) > 5(amine_secondary),amine_secondary,amine_secondary(9.5~11.5); amine_secondary(9.5~11.5)
CNCCCNC,8.52,1:5,amine_secondary:amine_secondary,"N,N'-Dimethyltrimethylenediamine",[H₂L]/[HL][H],0.0,25.0,1:5,amine_secondary:amine_secondary,1(amine_secondary) > 5(amine_secondary),amine_secondary,amine_secondary(9.5~11.5); amine_secondary(9.5~11.5)
CNCC(=C)CNC,10.42,1:6,amine_secondary:amine_secondary,"N,N'-Dimethyl-2-methylenetrimethylenediamine",[HL]/[L][H],0.5,25.0,1:6,amine_secondary:amine_secondary,1(amine_secondary) > 6(amine_secondary),amine_secondary,amine_secondary(9.5~11.5); amine_secondary(9.5~11.5)
CNCC(=C)CNC,8.39,1:6,amine_secondary:amine_secondary,"N,N'-Dimethyl-2-methylenetrimethylenediamine",[H₂L]/[HL][H],0.5,25.0,1:6,amine_secondary:amine_secondary,1(amine_secondary) > 6(amine_secondary),amine_secondary,amine_secondary(9.5~11.5); amine_secondary(9.5~11.5)
CC[C@@H](CO)NCCN[C@@H](CC)CO,9.05,5:8,amine_secondary:amine_secondary,D(+)-Ethylenebis(2-iminobutanol) (Ethambutol),[HL]/[L][H],0.15,37.0,5:8,amine_secondary:amine_secondary,5(amine_secondary) > 8(amine_secondary),amine_secondary,amine_secondary(9.5~11.5); amine_secondary(9.5~11.5)
CC[C@@H](CO)NCCN[C@@H](CC)CO,6.05,5:8,amine_secondary:amine_secondary,D(+)-Ethylenebis(2-iminobutanol) (Ethambutol),[H₂L]/[HL][H],0.15,37.0,5:8,amine_secondary:amine_secondary,5(amine_secondary) > 8(amine_secondary),amine_secondary,amine_secondary(9.5~11.5); amine_secondary(9.5~11.5)
CC(=O)CC(C)(C)NCCNC(C)(C)CC(C)=O,9.41,7:10,amine_secondary:amine_secondary,"Ethylenebis[imino-4-(4-methylpentan-2-one)] (4,4,9,9-Tetramethyl-5,8-diazadodecan-2,11-dione)",[HL]/[L][H],0.1,25.0,7:10,amine_secondary:amine_secondary,7(amine_secondary) > 10(amine_secondary),amine_secondary,amine_secondary(9.5~11.5); amine_secondary(9.5~11.5)
CC(=O)CC(C)(C)NCCNC(C)(C)CC(C)=O,6.19,7:10,amine_secondary:amine_secondary,"Ethylenebis[imino-4-(4-methylpentan-2-one)] (4,4,9,9-Tetramethyl-5,8-diazadodecan-2,11-dione)",[H₂L]/[HL][H],0.1,25.0,7:10,amine_secondary:amine_secondary,7(amine_secondary) > 10(amine_secondary),amine_secondary,amine_secondary(9.5~11.5); amine_secondary(9.5~11.5)
CC(C)(S)CNCCNCC(C)(C)S,10.99,3:5:8:13,thiol:amine_secondary:amine_secondary:thiol,"N,N'-Bis(2,2-dimethyl-2-mercaptoethyl)ethylenediamine",[HL]/[L][H],0.1,25.0,3:13:5:8,thiol:thiol:amine_secondary:amine_secondary,3(thiol) > 13(thiol) > 5(amine_secondary) > 8(amine_secondary),amine_secondary,thiol(8.0~11.0); amine_secondary(9.5~11.5); amine_secondary(9.5~11.5); thiol(8.0~11.0)
CC(C)(S)CNCCNCC(C)(C)S,9.72,3:5:8:13,thiol:amine_secondary:amine_secondary:thiol,"N,N'-Bis(2,2-dimethyl-2-mercaptoethyl)ethylenediamine",[H₂L]/[HL][H],0.1,25.0,3:13:5:8,thiol:thiol:amine_secondary:amine_secondary,3(thiol) > 13(thiol) > 5(amine_secondary) > 8(amine_secondary),thiol,thiol(8.0~11.0); amine_secondary(9.5~11.5); amine_secondary(9.5~11.5); thiol(8.0~11.0)
CC(C)(S)CNCCNCC(C)(C)S,7.79,3:5:8:13,thiol:amine_secondary:amine_secondary:thiol,"N,N'-Bis(2,2-dimethyl-2-mercaptoethyl)ethylenediamine",[H₃L]/[H₂L][H],0.1,25.0,3:13:5:8,thiol:thiol:amine_secondary:amine_secondary,3(thiol) > 13(thiol) > 5(amine_secondary) > 8(amine_secondary),thiol,thiol(8.0~11.0); amine_secondary(9.5~11.5); amine_secondary(9.5~11.5); thiol(8.0~11.0)
CC(C)(S)CNCCNCC(C)(C)S,5.56,3:5:8:13,thiol:amine_secondary:amine_secondary:thiol,"N,N'-Bis(2,2-dimethyl-2-mercaptoethyl)ethylenediamine",[H₄L]/[H₃L][H],0.1,25.0,3:13:5:8,thiol:thiol:amine_secondary:amine_secondary,3(thiol) > 13(thiol) > 5(amine_secondary) > 8(amine_secondary),thiol,thiol(8.0~11.0); amine_secondary(9.5~11.5); amine_secondary(9.5~11.5); thiol(8.0~11.0)
CNCCSCCN,9.86,1:7,amine_secondary:amine_primary,"4-Thia-1,7-diazaoctane",[HL]/[L][H],0.5,25.0,7:1,amine_primary:amine_secondary,7(amine_primary) > 1(amine_secondary),amine_primary,amine_secondary(9.5~11.5); amine_primary(9.0~11.0)
CNCCSCCN,8.89,1:7,amine_secondary:amine_primary,"4-Thia-1,7-diazaoctane",[H₂L]/[HL][H],0.5,25.0,7:1,amine_primary:amine_secondary,7(amine_primary) > 1(amine_secondary),amine_primary,amine_secondary(9.5~11.5); amine_primary(9.0~11.0)
CNCCSCCCN,10.26,1:8,amine_secondary:amine_primary,"5-Thia-1,8-diazanonane",[HL]/[L][H],0.5,25.0,8:1,amine_primary:amine_secondary,8(amine_primary) > 1(amine_secondary),amine_secondary,amine_secondary(9.5~11.5); amine_primary(9.0~11.0)
CNCCSCCCN,9.44,1:8,amine_secondary:amine_primary,"5-Thia-1,8-diazanonane",[H₂L]/[HL][H],0.5,25.0,8:1,amine_primary:amine_secondary,8(amine_primary) > 1(amine_secondary),amine_primary,amine_secondary(9.5~11.5); amine_primary(9.0~11.0)
CNCCSCCCCN,10.51,1:9,amine_secondary:amine_primary,"6-Thia-1,9-diazadecane",[HL]/[L][H],0.5,25.0,9:1,amine_primary:amine_secondary,9(amine_primary) > 1(amine_secondary),amine_secondary,amine_secondary(9.5~11.5); amine_primary(9.0~11.0)
CNCCSCCCCN,9.55,1:9,amine_secondary:amine_primary,"6-Thia-1,9-diazadecane",[H₂L]/[HL][H],0.5,25.0,9:1,amine_primary:amine_secondary,9(amine_primary) > 1(amine_secondary),amine_primary,amine_secondary(9.5~11.5); amine_primary(9.0~11.0)
CNCCSCCNC,9.91,1:7,amine_secondary:amine_secondary,"5-Thia-2,8-diazanonane",[HL]/[L][H],0.1,25.0,1:7,amine_secondary:amine_secondary,1(amine_secondary) > 7(amine_secondary),amine_secondary,amine_secondary(9.5~11.5); amine_secondary(9.5~11.5)
CNCCSCCNC,8.94,1:7,amine_secondary:amine_secondary,"5-Thia-2,8-diazanonane",[H₂L]/[HL][H],0.1,25.0,1:7,amine_secondary:amine_secondary,1(amine_secondary) > 7(amine_secondary),amine_secondary,amine_secondary(9.5~11.5); amine_secondary(9.5~11.5)
CSCCCNCCNCCCSC,9.74,5:8,amine_secondary:amine_secondary,"2,13-Dithia-6,9-diazatetradecane",[HL]/[L][H],0.5,25.0,5:8,amine_secondary:amine_secondary,5(amine_secondary) > 8(amine_secondary),amine_secondary,amine_secondary(9.5~11.5); amine_secondary(9.5~11.5)
CSCCCNCCNCCCSC,6.89,5:8,amine_secondary:amine_secondary,"2,13-Dithia-6,9-diazatetradecane",[H₂L]/[HL][H],0.5,25.0,5:8,amine_secondary:amine_secondary,5(amine_secondary) > 8(amine_secondary),amine_secondary,amine_secondary(9.5~11.5); amine_secondary(9.5~11.5)
CNCCSCCOCCSCCNC,9.84,1:13,amine_secondary:amine_secondary,"8-Oxa-5,11-dithia-2,14-diazapentadecane",[HL]/[L][H],0.1,25.0,1:13,amine_secondary:amine_secondary,1(amine_secondary) > 13(amine_secondary),amine_secondary,amine_secondary(9.5~11.5); amine_secondary(9.5~11.5)
CNCCSCCOCCSCCNC,9.06,1:13,amine_secondary:amine_secondary,"8-Oxa-5,11-dithia-2,14-diazapentadecane",[H₂L]/[HL][H],0.1,25.0,1:13,amine_secondary:amine_secondary,1(amine_secondary) > 13(amine_secondary),amine_secondary,amine_secondary(9.5~11.5); amine_secondary(9.5~11.5)
CC(CC(C)(C)NCCNC(C)(C)CC(C)=NO)=NO,9.41,6:9,amine_secondary:amine_secondary,"Ethylenebis[imino-4-(4-methylpentan-2-one oxime)] (4,4,9,9-Tetramethyl-5,8-diazadodecane-2,11-dione dioxime)",[HL]/[L][H],0.1,25.0,6:9,amine_secondary:amine_secondary,6(amine_secondary) > 9(amine_secondary),amine_secondary,amine_secondary(9.5~11.5); amine_secondary(9.5~11.5)
CC(CC(C)(C)NCCNC(C)(C)CC(C)=NO)=NO,9.35,6:9,amine_secondary:amine_secondary,"Ethylenebis[imino-4-(4-methylpentan-2-one oxime)] (4,4,9,9-Tetramethyl-5,8-diazadodecane-2,11-dione dioxime)",[HL]/[L][H],0.0,25.0,6:9,amine_secondary:amine_secondary,6(amine_secondary) > 9(amine_secondary),amine_secondary,amine_secondary(9.5~11.5); amine_secondary(9.5~11.5)