SMILES,pKa,Dissociable_Atoms,Functional_Group,Name,Equilibrium,Ionic,Temperature,Dissociable_Atoms_Ordered,Functional_Group_Ordered,Dissociation_Order,Dissociating_Group,Functional_Group_pKa_Ranges
OC(=O)CC(Nc1ccc(NC(CC(O)=O)C(O)=O)cc1)C(O)=O,3.58,0:14:17:22,carboxylic_acid:carboxylic_acid:carboxylic_acid:carboxylic_acid,"1,4-Phenylenediiminodibutanedioic acid",[H₃L]/[H₂L][H],0.5,25.0,0:14:17:22,carboxylic_acid:carboxylic_acid:carboxylic_acid:carboxylic_acid,0(carboxylic_acid) > 14(carboxylic_acid) > 17(carboxylic_acid) > 22(carboxylic_acid),carboxylic_acid,carboxylic_acid(1.5~5.0); carboxylic_acid(1.5~5.0); carboxylic_acid(1.5~5.0); carboxylic_acid(1.5~5.0)
OC(=O)CC(Nc1ccc(NC(CC(O)=O)C(O)=O)cc1)C(O)=O,3.03,0:14:17:22,carboxylic_acid:carboxylic_acid:carboxylic_acid:carboxylic_acid,"1,4-Phenylenediiminodibutanedioic acid",[H₄L]/[H₃L][H],0.5,25.0,0:14:17:22,carboxylic_acid:carboxylic_acid:carboxylic_acid:carboxylic_acid,0(carboxylic_acid) > 14(carboxylic_acid) > 17(carboxylic_acid) > 22(carboxylic_acid),carboxylic_acid,carboxylic_acid(1.5~5.0); carboxylic_acid(1.5~5.0); carboxylic_acid(1.5~5.0); carboxylic_acid(1.5~5.0)
OC(=O)CN(CC(O)=O)c1ccccc1,4.98,0:7,carboxylic_acid:carboxylic_acid,N-Phenyliminodiacetic acid,[HL]/[L][H],0.1,20.0,0:7,carboxylic_acid:carboxylic_acid,0(carboxylic_acid) > 7(carboxylic_acid),carboxylic_acid,carboxylic_acid(1.5~5.0); carboxylic_acid(1.5~5.0)
OC(=O)CN(CC(O)=O)c1ccccc1,5.02,0:7,carboxylic_acid:carboxylic_acid,N-Phenyliminodiacetic acid,[HL]/[L][H],0.1,25.0,0:7,carboxylic_acid:carboxylic_acid,0(carboxylic_acid) > 7(carboxylic_acid),carboxylic_acid,carboxylic_acid(1.5~5.0); carboxylic_acid(1.5~5.0)
OC(=O)CN(CC(O)=O)c1ccccc1,5.04,0:7,carboxylic_acid:carboxylic_acid,N-Phenyliminodiacetic acid,[HL]/[L][H],1.0,25.0,0:7,carboxylic_acid:carboxylic_acid,0(carboxylic_acid) > 7(carboxylic_acid),carboxylic_acid,carboxylic_acid(1.5~5.0); carboxylic_acid(1.5~5.0)
OC(=O)CN(CC(O)=O)c1ccccc1,2.4,0:7,carboxylic_acid:carboxylic_acid,N-Phenyliminodiacetic acid,[H₂L]/[HL][H],0.1,25.0,0:7,carboxylic_acid:carboxylic_acid,0(carboxylic_acid) > 7(carboxylic_acid),carboxylic_acid,carboxylic_acid(1.5~5.0); carboxylic_acid(1.5~5.0)
OC(=O)CN(CC(O)=O)c1ccccc1[S](O)(=O)=O,6.29,0:7,carboxylic_acid:carboxylic_acid,N-(2-Sulfophenyl)iminodiacetic acid,[HL]/[L][H],0.1,20.0,0:7,carboxylic_acid:carboxylic_acid,0(carboxylic_acid) > 7(carboxylic_acid),carboxylic_acid,carboxylic_acid(1.5~5.0); carboxylic_acid(1.5~5.0)
OC(=O)CN(CC(O)=O)c1ccccc1[S](O)(=O)=O,3.4,0:7,carboxylic_acid:carboxylic_acid,N-(2-Sulfophenyl)iminodiacetic acid,[H₂L]/[HL][H],0.1,20.0,0:7,carboxylic_acid:carboxylic_acid,0(carboxylic_acid) > 7(carboxylic_acid),carboxylic_acid,carboxylic_acid(1.5~5.0); carboxylic_acid(1.5~5.0)
OC(=O)CN(CC(O)=O)c1cccc(c1)[S](O)(=O)=O,4.79,0:7,carboxylic_acid:carboxylic_acid,N-(3-Sulfophenyl)iminodiacetic acid,[HL]/[L][H],0.1,20.0,0:7,carboxylic_acid:carboxylic_acid,0(carboxylic_acid) > 7(carboxylic_acid),carboxylic_acid,carboxylic_acid(1.5~5.0); carboxylic_acid(1.5~5.0)
OC(=O)CN(CC(O)=O)c1cccc(c1)[S](O)(=O)=O,2.36,0:7,carboxylic_acid:carboxylic_acid,N-(3-Sulfophenyl)iminodiacetic acid,[H₂L]/[HL][H],0.1,20.0,0:7,carboxylic_acid:carboxylic_acid,0(carboxylic_acid) > 7(carboxylic_acid),carboxylic_acid,carboxylic_acid(1.5~5.0); carboxylic_acid(1.5~5.0)
OC(=O)CN(CC(O)=O)c1ccc(cc1)[S](O)(=O)=O,4.54,0:7,carboxylic_acid:carboxylic_acid,N-(4-Sulfophenyl)iminodiacetic acid,[HL]/[L][H],0.1,20.0,0:7,carboxylic_acid:carboxylic_acid,0(carboxylic_acid) > 7(carboxylic_acid),carboxylic_acid,carboxylic_acid(1.5~5.0); carboxylic_acid(1.5~5.0)
OC(=O)CN(CC(O)=O)c1ccc(cc1)[S](O)(=O)=O,2.31,0:7,carboxylic_acid:carboxylic_acid,N-(4-Sulfophenyl)iminodiacetic acid,[H₂L]/[HL][H],0.1,20.0,0:7,carboxylic_acid:carboxylic_acid,0(carboxylic_acid) > 7(carboxylic_acid),carboxylic_acid,carboxylic_acid(1.5~5.0); carboxylic_acid(1.5~5.0)
OC(=O)CN(CC(O)=O)c1ccc(c2ccccc12)[S](O)(=O)=O,3.92,0:7,carboxylic_acid:carboxylic_acid,N-(4-Sulfo-1-naphthyl)iminodiacetic acid,[HL]/[L][H],0.1,25.0,0:7,carboxylic_acid:carboxylic_acid,0(carboxylic_acid) > 7(carboxylic_acid),carboxylic_acid,carboxylic_acid(1.5~5.0); carboxylic_acid(1.5~5.0)
OC(=O)CN(CC(O)=O)c1ccc(c2ccccc12)[S](O)(=O)=O,2.76,0:7,carboxylic_acid:carboxylic_acid,N-(4-Sulfo-1-naphthyl)iminodiacetic acid,[H₂L]/[HL][H],0.1,25.0,0:7,carboxylic_acid:carboxylic_acid,0(carboxylic_acid) > 7(carboxylic_acid),carboxylic_acid,carboxylic_acid(1.5~5.0); carboxylic_acid(1.5~5.0)
OC(=O)CN(CC(O)=O)c1ccccc1C(O)=O,7.73,0:7:16,carboxylic_acid:carboxylic_acid:carboxylic_acid,N-(2-Carboxyphenyl)iminodiacetic acid,[HL]/[L][H],0.1,25.0,0:7:16,carboxylic_acid:carboxylic_acid:carboxylic_acid,0(carboxylic_acid) > 7(carboxylic_acid) > 16(carboxylic_acid),carboxylic_acid,carboxylic_acid(1.5~5.0); carboxylic_acid(1.5~5.0); carboxylic_acid(1.5~5.0)
OC(=O)CN(CC(O)=O)c1ccccc1C(O)=O,7.75,0:7:16,carboxylic_acid:carboxylic_acid:carboxylic_acid,N-(2-Carboxyphenyl)iminodiacetic acid,[HL]/[L][H],0.1,20.0,0:7:16,carboxylic_acid:carboxylic_acid:carboxylic_acid,0(carboxylic_acid) > 7(carboxylic_acid) > 16(carboxylic_acid),carboxylic_acid,carboxylic_acid(1.5~5.0); carboxylic_acid(1.5~5.0); carboxylic_acid(1.5~5.0)
OC(=O)CN(CC(O)=O)c1ccccc1C(O)=O,2.99,0:7:16,carboxylic_acid:carboxylic_acid:carboxylic_acid,N-(2-Carboxyphenyl)iminodiacetic acid,[H₂L]/[HL][H],0.1,25.0,0:7:16,carboxylic_acid:carboxylic_acid:carboxylic_acid,0(carboxylic_acid) > 7(carboxylic_acid) > 16(carboxylic_acid),carboxylic_acid,carboxylic_acid(1.5~5.0); carboxylic_acid(1.5~5.0); carboxylic_acid(1.5~5.0)
OC(=O)CN(CC(O)=O)c1ccccc1C(O)=O,2.98,0:7:16,carboxylic_acid:carboxylic_acid:carboxylic_acid,N-(2-Carboxyphenyl)iminodiacetic acid,[H₂L]/[HL][H],0.1,20.0,0:7:16,carboxylic_acid:carboxylic_acid:carboxylic_acid,0(carboxylic_acid) > 7(carboxylic_acid) > 16(carboxylic_acid),carboxylic_acid,carboxylic_acid(1.5~5.0); carboxylic_acid(1.5~5.0); carboxylic_acid(1.5~5.0)
OC(=O)CN(CC(O)=O)c1ccccc1C(O)=O,2.2,0:7:16,carboxylic_acid:carboxylic_acid:carboxylic_acid,N-(2-Carboxyphenyl)iminodiacetic acid,[H₃L]/[H₂L][H],0.1,25.0,0:7:16,carboxylic_acid:carboxylic_acid:carboxylic_acid,0(carboxylic_acid) > 7(carboxylic_acid) > 16(carboxylic_acid),carboxylic_acid,carboxylic_acid(1.5~5.0); carboxylic_acid(1.5~5.0); carboxylic_acid(1.5~5.0)
OC(=O)CN(CC(O)=O)c1ccccc1C(O)=O,2.34,0:7:16,carboxylic_acid:carboxylic_acid:carboxylic_acid,N-(2-Carboxyphenyl)iminodiacetic acid,[H₃L]/[H₂L][H],0.1,20.0,0:7:16,carboxylic_acid:carboxylic_acid:carboxylic_acid,0(carboxylic_acid) > 7(carboxylic_acid) > 16(carboxylic_acid),carboxylic_acid,carboxylic_acid(1.5~5.0); carboxylic_acid(1.5~5.0); carboxylic_acid(1.5~5.0)
OC(=O)CN(CC(O)=O)c1cccc(c1)C(O)=O,5.1,0:7:16,carboxylic_acid:carboxylic_acid:carboxylic_acid,N-(3-Carboxyphenyl)iminodiacetic acid,[HL]/[L][H],0.1,20.0,0:7:16,carboxylic_acid:carboxylic_acid:carboxylic_acid,0(carboxylic_acid) > 7(carboxylic_acid) > 16(carboxylic_acid),carboxylic_acid,carboxylic_acid(1.5~5.0); carboxylic_acid(1.5~5.0); carboxylic_acid(1.5~5.0)
OC(=O)CN(CC(O)=O)c1cccc(c1)C(O)=O,4.06,0:7:16,carboxylic_acid:carboxylic_acid:carboxylic_acid,N-(3-Carboxyphenyl)iminodiacetic acid,[H₂L]/[HL][H],0.1,20.0,0:7:16,carboxylic_acid:carboxylic_acid:carboxylic_acid,0(carboxylic_acid) > 7(carboxylic_acid) > 16(carboxylic_acid),carboxylic_acid,carboxylic_acid(1.5~5.0); carboxylic_acid(1.5~5.0); carboxylic_acid(1.5~5.0)
OC(=O)CN(CC(O)=O)c1cccc(c1)C(O)=O,2.4,0:7:16,carboxylic_acid:carboxylic_acid:carboxylic_acid,N-(3-Carboxyphenyl)iminodiacetic acid,[H₃L]/[H₂L][H],0.1,20.0,0:7:16,carboxylic_acid:carboxylic_acid:carboxylic_acid,0(carboxylic_acid) > 7(carboxylic_acid) > 16(carboxylic_acid),carboxylic_acid,carboxylic_acid(1.5~5.0); carboxylic_acid(1.5~5.0); carboxylic_acid(1.5~5.0)
OC(=O)CN(CC(O)=O)c1ccc(cc1)C(O)=O,5.2,0:7:16,carboxylic_acid:carboxylic_acid:carboxylic_acid,N-(4-Carboxyphenyl)iminodiacetic acid,[HL]/[L][H],0.1,20.0,0:7:16,carboxylic_acid:carboxylic_acid:carboxylic_acid,0(carboxylic_acid) > 7(carboxylic_acid) > 16(carboxylic_acid),carboxylic_acid,carboxylic_acid(1.5~5.0); carboxylic_acid(1.5~5.0); carboxylic_acid(1.5~5.0)
OC(=O)CN(CC(O)=O)c1ccc(cc1)C(O)=O,4.28,0:7:16,carboxylic_acid:carboxylic_acid:carboxylic_acid,N-(4-Carboxyphenyl)iminodiacetic acid,[H₂L]/[HL][H],0.1,20.0,0:7:16,carboxylic_acid:carboxylic_acid:carboxylic_acid,0(carboxylic_acid) > 7(carboxylic_acid) > 16(carboxylic_acid),carboxylic_acid,carboxylic_acid(1.5~5.0); carboxylic_acid(1.5~5.0); carboxylic_acid(1.5~5.0)
OC(=O)CN(CC(O)=O)c1ccc(cc1)C(O)=O,2.31,0:7:16,carboxylic_acid:carboxylic_acid:carboxylic_acid,N-(4-Carboxyphenyl)iminodiacetic acid,[H₃L]/[H₂L][H],0.1,20.0,0:7:16,carboxylic_acid:carboxylic_acid:carboxylic_acid,0(carboxylic_acid) > 7(carboxylic_acid) > 16(carboxylic_acid),carboxylic_acid,carboxylic_acid(1.5~5.0); carboxylic_acid(1.5~5.0); carboxylic_acid(1.5~5.0)
OC(=O)CN(CC(O)=O)c1cc(ccc1C(O)=O)C(O)=O,7.54,7,tertiary_amine,"N-(2,5-Dicarboxyphenyl)iminodiacetic acid",[HL]/[L][H],0.1,25.0,7,tertiary_amine,7(tertiary_amine),Unknown,tertiary_amine(Unknown)
OC(=O)CN(CC(O)=O)c1cc(C(O)=O)c(O)cc1C(O)=O,8.61,0:7:13:16:20,carboxylic_acid:carboxylic_acid:carboxylic_acid:phenol:carboxylic_acid,"N-(4-Hydroxy-2,5-dicarboxyphenyl)iminodiacetic acid",[H₂L]/[HL][H],0.1,25.0,0:7:13:20:16,carboxylic_acid:carboxylic_acid:carboxylic_acid:carboxylic_acid:phenol,0(carboxylic_acid) > 7(carboxylic_acid) > 13(carboxylic_acid) > 20(carboxylic_acid) > 16(phenol),phenol,carboxylic_acid(1.5~5.0); carboxylic_acid(1.5~5.0); carboxylic_acid(1.5~5.0); phenol(8.0~11.0); carboxylic_acid(1.5~5.0)
OC(=O)CN(CC(O)=O)c1cc(C(O)=O)c(O)cc1C(O)=O,3.18,0:7:13:16:20,carboxylic_acid:carboxylic_acid:carboxylic_acid:phenol:carboxylic_acid,"N-(4-Hydroxy-2,5-dicarboxyphenyl)iminodiacetic acid",[H₃L]/[H₂L][H],0.1,25.0,0:7:13:20:16,carboxylic_acid:carboxylic_acid:carboxylic_acid:carboxylic_acid:phenol,0(carboxylic_acid) > 7(carboxylic_acid) > 13(carboxylic_acid) > 20(carboxylic_acid) > 16(phenol),carboxylic_acid,carboxylic_acid(1.5~5.0); carboxylic_acid(1.5~5.0); carboxylic_acid(1.5~5.0); phenol(8.0~11.0); carboxylic_acid(1.5~5.0)
OC(=O)CN(CC(O)=O)c1cc(C(O)=O)c(O)cc1C(O)=O,2.2,0:7:13:16:20,carboxylic_acid:carboxylic_acid:carboxylic_acid:phenol:carboxylic_acid,"N-(4-Hydroxy-2,5-dicarboxyphenyl)iminodiacetic acid",[H₄L]/[H₃L][H],0.1,25.0,0:7:13:20:16,carboxylic_acid:carboxylic_acid:carboxylic_acid:carboxylic_acid:phenol,0(carboxylic_acid) > 7(carboxylic_acid) > 13(carboxylic_acid) > 20(carboxylic_acid) > 16(phenol),carboxylic_acid,carboxylic_acid(1.5~5.0); carboxylic_acid(1.5~5.0); carboxylic_acid(1.5~5.0); phenol(8.0~11.0); carboxylic_acid(1.5~5.0)
OC(=O)CN(CC(O)=O)c1cc(C(O)=O)c(O)cc1C(O)=O,1.6,0:7:13:16:20,carboxylic_acid:carboxylic_acid:carboxylic_acid:phenol:carboxylic_acid,"N-(4-Hydroxy-2,5-dicarboxyphenyl)iminodiacetic acid",[H₅L]/[H₄L][H],0.1,25.0,0:7:13:20:16,carboxylic_acid:carboxylic_acid:carboxylic_acid:carboxylic_acid:phenol,0(carboxylic_acid) > 7(carboxylic_acid) > 13(carboxylic_acid) > 20(carboxylic_acid) > 16(phenol),carboxylic_acid,carboxylic_acid(1.5~5.0); carboxylic_acid(1.5~5.0); carboxylic_acid(1.5~5.0); phenol(8.0~11.0); carboxylic_acid(1.5~5.0)
OC(=O)CN(CC(O)=O)c1ccccc1O,11.08,0:7:15,carboxylic_acid:carboxylic_acid:phenol,N-(2-Hydroxyphenyl)iminodiacetic acid,[HL]/[L][H],0.1,20.0,0:7:15,carboxylic_acid:carboxylic_acid:phenol,0(carboxylic_acid) > 7(carboxylic_acid) > 15(phenol),phenol,carboxylic_acid(1.5~5.0); carboxylic_acid(1.5~5.0); phenol(8.0~11.0)
OC(=O)CN(CC(O)=O)c1ccccc1O,5.43,0:7:15,carboxylic_acid:carboxylic_acid:phenol,N-(2-Hydroxyphenyl)iminodiacetic acid,[H₂L]/[HL][H],0.1,20.0,0:7:15,carboxylic_acid:carboxylic_acid:phenol,0(carboxylic_acid) > 7(carboxylic_acid) > 15(phenol),carboxylic_acid,carboxylic_acid(1.5~5.0); carboxylic_acid(1.5~5.0); phenol(8.0~11.0)
OC(=O)CN(CC(O)=O)c1ccccc1O,2.98,0:7:15,carboxylic_acid:carboxylic_acid:phenol,N-(2-Hydroxyphenyl)iminodiacetic acid,[H₃L]/[H₂L][H],0.1,20.0,0:7:15,carboxylic_acid:carboxylic_acid:phenol,0(carboxylic_acid) > 7(carboxylic_acid) > 15(phenol),carboxylic_acid,carboxylic_acid(1.5~5.0); carboxylic_acid(1.5~5.0); phenol(8.0~11.0)
OC(=O)CN(CC(O)=O)c1cccc(O)c1,11.0,0:7:14,carboxylic_acid:carboxylic_acid:phenol,N-(3-Hydroxyphenyl)iminodiacetic acid,[HL]/[L][H],0.1,25.0,0:7:14,carboxylic_acid:carboxylic_acid:phenol,0(carboxylic_acid) > 7(carboxylic_acid) > 14(phenol),phenol,carboxylic_acid(1.5~5.0); carboxylic_acid(1.5~5.0); phenol(8.0~11.0)
OC(=O)CN(CC(O)=O)c1cccc(O)c1,4.93,0:7:14,carboxylic_acid:carboxylic_acid:phenol,N-(3-Hydroxyphenyl)iminodiacetic acid,[H₂L]/[HL][H],0.1,25.0,0:7:14,carboxylic_acid:carboxylic_acid:phenol,0(carboxylic_acid) > 7(carboxylic_acid) > 14(phenol),carboxylic_acid,carboxylic_acid(1.5~5.0); carboxylic_acid(1.5~5.0); phenol(8.0~11.0)
OC(=O)CN(CC(O)=O)c1cccc(O)c1,2.54,0:7:14,carboxylic_acid:carboxylic_acid:phenol,N-(3-Hydroxyphenyl)iminodiacetic acid,[H₃L]/[H₂L][H],0.1,25.0,0:7:14,carboxylic_acid:carboxylic_acid:phenol,0(carboxylic_acid) > 7(carboxylic_acid) > 14(phenol),carboxylic_acid,carboxylic_acid(1.5~5.0); carboxylic_acid(1.5~5.0); phenol(8.0~11.0)
OC(=O)CN(CC(O)=O)c1ccc(O)cc1,10.92,0:7:13,carboxylic_acid:carboxylic_acid:phenol,N-(4-Hydroxyphenyl)iminodiacetic acid,[HL]/[L][H],0.1,25.0,0:7:13,carboxylic_acid:carboxylic_acid:phenol,0(carboxylic_acid) > 7(carboxylic_acid) > 13(phenol),phenol,carboxylic_acid(1.5~5.0); carboxylic_acid(1.5~5.0); phenol(8.0~11.0)
OC(=O)CN(CC(O)=O)c1ccc(O)cc1,5.19,0:7:13,carboxylic_acid:carboxylic_acid:phenol,N-(4-Hydroxyphenyl)iminodiacetic acid,[H₂L]/[HL][H],0.1,25.0,0:7:13,carboxylic_acid:carboxylic_acid:phenol,0(carboxylic_acid) > 7(carboxylic_acid) > 13(phenol),carboxylic_acid,carboxylic_acid(1.5~5.0); carboxylic_acid(1.5~5.0); phenol(8.0~11.0)
OC(=O)CN(CC(O)=O)c1ccc(O)cc1,2.22,0:7:13,carboxylic_acid:carboxylic_acid:phenol,N-(4-Hydroxyphenyl)iminodiacetic acid,[H₃L]/[H₂L][H],0.1,25.0,0:7:13,carboxylic_acid:carboxylic_acid:phenol,0(carboxylic_acid) > 7(carboxylic_acid) > 13(phenol),carboxylic_acid,carboxylic_acid(1.5~5.0); carboxylic_acid(1.5~5.0); phenol(8.0~11.0)
OC(=O)CN(CC(O)=O)c1c(O)cc(c2ccccc12)[S](O)(=O)=O,8.85,0:7:11,carboxylic_acid:carboxylic_acid:phenol,N-(2-Hydroxy-4-sulfo-1-naphthyl)iminodiacetic acid,[HL]/[L][H],0.1,25.0,0:7:11,carboxylic_acid:carboxylic_acid:phenol,0(carboxylic_acid) > 7(carboxylic_acid) > 11(phenol),phenol,carboxylic_acid(1.5~5.0); carboxylic_acid(1.5~5.0); phenol(8.0~11.0)
OC(=O)CN(CC(O)=O)c1c(O)cc(c2ccccc12)[S](O)(=O)=O,3.38,0:7:11,carboxylic_acid:carboxylic_acid:phenol,N-(2-Hydroxy-4-sulfo-1-naphthyl)iminodiacetic acid,[H₂L]/[HL][H],0.1,25.0,0:7:11,carboxylic_acid:carboxylic_acid:phenol,0(carboxylic_acid) > 7(carboxylic_acid) > 11(phenol),carboxylic_acid,carboxylic_acid(1.5~5.0); carboxylic_acid(1.5~5.0); phenol(8.0~11.0)
OC(=O)CN(CC(O)=O)c1c(O)cc(c2ccccc12)[S](O)(=O)=O,2.16,0:7:11,carboxylic_acid:carboxylic_acid:phenol,N-(2-Hydroxy-4-sulfo-1-naphthyl)iminodiacetic acid,[H₃L]/[H₂L][H],0.1,25.0,0:7:11,carboxylic_acid:carboxylic_acid:phenol,0(carboxylic_acid) > 7(carboxylic_acid) > 11(phenol),carboxylic_acid,carboxylic_acid(1.5~5.0); carboxylic_acid(1.5~5.0); phenol(8.0~11.0)
OC(=O)CN(CC(O)=O)c1ccc(c2cc(cc(O)c12)[S](O)(=O)=O)[S](O)(=O)=O,9.48,0:7:18,carboxylic_acid:carboxylic_acid:phenol,"N-(8-Hydroxy-4,6-disulfo-1-naphthyl)iminodiacetic acid",[HL]/[L][H],0.1,25.0,0:7:18,carboxylic_acid:carboxylic_acid:phenol,0(carboxylic_acid) > 7(carboxylic_acid) > 18(phenol),phenol,carboxylic_acid(1.5~5.0); carboxylic_acid(1.5~5.0); phenol(8.0~11.0)
OC(=O)CN(CC(O)=O)c1ccc(c2cc(cc(O)c12)[S](O)(=O)=O)[S](O)(=O)=O,3.87,0:7:18,carboxylic_acid:carboxylic_acid:phenol,"N-(8-Hydroxy-4,6-disulfo-1-naphthyl)iminodiacetic acid",[H₂L]/[HL][H],0.1,25.0,0:7:18,carboxylic_acid:carboxylic_acid:phenol,0(carboxylic_acid) > 7(carboxylic_acid) > 18(phenol),carboxylic_acid,carboxylic_acid(1.5~5.0); carboxylic_acid(1.5~5.0); phenol(8.0~11.0)
OC(=O)CN(CC(O)=O)c1ccc(c2cc(cc(O)c12)[S](O)(=O)=O)[S](O)(=O)=O,2.58,0:7:18,carboxylic_acid:carboxylic_acid:phenol,"N-(8-Hydroxy-4,6-disulfo-1-naphthyl)iminodiacetic acid",[H₃L]/[H₂L][H],0.1,25.0,0:7:18,carboxylic_acid:carboxylic_acid:phenol,0(carboxylic_acid) > 7(carboxylic_acid) > 18(phenol),carboxylic_acid,carboxylic_acid(1.5~5.0); carboxylic_acid(1.5~5.0); phenol(8.0~11.0)
COc1ccccc1N(CC(O)=O)CC(O)=O,5.58,11:15,carboxylic_acid:carboxylic_acid,N-(2-Methoxyphenyl)iminodiacetic acid,[HL]/[L][H],0.1,20.0,11:15,carboxylic_acid:carboxylic_acid,11(carboxylic_acid) > 15(carboxylic_acid),carboxylic_acid,carboxylic_acid(1.5~5.0); carboxylic_acid(1.5~5.0)
COc1ccccc1N(CC(O)=O)CC(O)=O,2.69,11:15,carboxylic_acid:carboxylic_acid,N-(2-Methoxyphenyl)iminodiacetic acid,[H₂L]/[HL][H],0.1,20.0,11:15,carboxylic_acid:carboxylic_acid,11(carboxylic_acid) > 15(carboxylic_acid),carboxylic_acid,carboxylic_acid(1.5~5.0); carboxylic_acid(1.5~5.0)
OC(=O)CN(CC(O)=O)c1ccccc1S,9.54,0:7:15,carboxylic_acid:carboxylic_acid:thiol,N-(2-Mercaptophenyl)iminodiacetic acid,[HL]/[L][H],0.1,20.0,0:7:15,carboxylic_acid:carboxylic_acid:thiol,0(carboxylic_acid) > 7(carboxylic_acid) > 15(thiol),thiol,carboxylic_acid(1.5~5.0); carboxylic_acid(1.5~5.0); thiol(8.0~11.0)
OC(=O)CN(CC(O)=O)c1ccccc1S,6.3,0:7:15,carboxylic_acid:carboxylic_acid:thiol,N-(2-Mercaptophenyl)iminodiacetic acid,[H₂L]/[HL][H],0.1,20.0,0:7:15,carboxylic_acid:carboxylic_acid:thiol,0(carboxylic_acid) > 7(carboxylic_acid) > 15(thiol),carboxylic_acid,carboxylic_acid(1.5~5.0); carboxylic_acid(1.5~5.0); thiol(8.0~11.0)
OC(=O)CN(CC(O)=O)c1ccccc1S,2.85,0:7:15,carboxylic_acid:carboxylic_acid:thiol,N-(2-Mercaptophenyl)iminodiacetic acid,[H₃L]/[H₂L][H],0.1,20.0,0:7:15,carboxylic_acid:carboxylic_acid:thiol,0(carboxylic_acid) > 7(carboxylic_acid) > 15(thiol),carboxylic_acid,carboxylic_acid(1.5~5.0); carboxylic_acid(1.5~5.0); thiol(8.0~11.0)
OC(=O)CNc1cc(C(O)=O)c(cc1C(O)=O)N(CC(O)=O)CC(O)=O,9.4,0:9:15:20:24,carboxylic_acid:carboxylic_acid:carboxylic_acid:carboxylic_acid:carboxylic_acid,"N-[2,5-Dicarboxy-4-(carboxymethylamino)phenyl]iminodiacetic acid",[HL]/[L][H],0.1,25.0,0:9:15:20:24,carboxylic_acid:carboxylic_acid:carboxylic_acid:carboxylic_acid:carboxylic_acid,0(carboxylic_acid) > 9(carboxylic_acid) > 15(carboxylic_acid) > 20(carboxylic_acid) > 24(carboxylic_acid),carboxylic_acid,carboxylic_acid(1.5~5.0); carboxylic_acid(1.5~5.0); carboxylic_acid(1.5~5.0); carboxylic_acid(1.5~5.0); carboxylic_acid(1.5~5.0)
OC(=O)CNc1cc(C(O)=O)c(cc1C(O)=O)N(CC(O)=O)CC(O)=O,4.48,0:9:15:20:24,carboxylic_acid:carboxylic_acid:carboxylic_acid:carboxylic_acid:carboxylic_acid,"N-[2,5-Dicarboxy-4-(carboxymethylamino)phenyl]iminodiacetic acid",[H₂L]/[HL][H],0.1,25.0,0:9:15:20:24,carboxylic_acid:carboxylic_acid:carboxylic_acid:carboxylic_acid:carboxylic_acid,0(carboxylic_acid) > 9(carboxylic_acid) > 15(carboxylic_acid) > 20(carboxylic_acid) > 24(carboxylic_acid),carboxylic_acid,carboxylic_acid(1.5~5.0); carboxylic_acid(1.5~5.0); carboxylic_acid(1.5~5.0); carboxylic_acid(1.5~5.0); carboxylic_acid(1.5~5.0)
OC(=O)CNc1cc(C(O)=O)c(cc1C(O)=O)N(CC(O)=O)CC(O)=O,3.57,0:9:15:20:24,carboxylic_acid:carboxylic_acid:carboxylic_acid:carboxylic_acid:carboxylic_acid,"N-[2,5-Dicarboxy-4-(carboxymethylamino)phenyl]iminodiacetic acid",[H₃L]/[H₂L][H],0.1,25.0,0:9:15:20:24,carboxylic_acid:carboxylic_acid:carboxylic_acid:carboxylic_acid:carboxylic_acid,0(carboxylic_acid) > 9(carboxylic_acid) > 15(carboxylic_acid) > 20(carboxylic_acid) > 24(carboxylic_acid),carboxylic_acid,carboxylic_acid(1.5~5.0); carboxylic_acid(1.5~5.0); carboxylic_acid(1.5~5.0); carboxylic_acid(1.5~5.0); carboxylic_acid(1.5~5.0)