SMILES,pKa,Dissociable_Atoms,Functional_Group,Name,Dissociable_Atoms_Ordered,Functional_Group_Ordered,Dissociation_Order
O[P](O)(=O)O[P](O)(=O)O[P](O)(O)=O,7.77,0:1:2:5:6,phosphate:phosphate:phosphate:phosphate:phosphate,Hydrogen triphosphate (Triphosphoric acid),0:1:2:5:6,phosphate:phosphate:phosphate:phosphate:phosphate,0(phosphate) > 1(phosphate) > 2(phosphate) > 5(phosphate) > 6(phosphate)
O[P](O)(=O)O[P](O)(=O)O[P](O)(O)=O,7.97,0:1:2:5:6,phosphate:phosphate:phosphate:phosphate:phosphate,Hydrogen triphosphate (Triphosphoric acid),0:1:2:5:6,phosphate:phosphate:phosphate:phosphate:phosphate,0(phosphate) > 1(phosphate) > 2(phosphate) > 5(phosphate) > 6(phosphate)
O[P](O)(=O)O[P](O)(=O)O[P](O)(O)=O,8.62,0:1:2:5:6,phosphate:phosphate:phosphate:phosphate:phosphate,Hydrogen triphosphate (Triphosphoric acid),0:1:2:5:6,phosphate:phosphate:phosphate:phosphate:phosphate,0(phosphate) > 1(phosphate) > 2(phosphate) > 5(phosphate) > 6(phosphate)
O[P](O)(=O)O[P](O)(=O)O[P](O)(O)=O,7.1,0:1:2:5:6,phosphate:phosphate:phosphate:phosphate:phosphate,Hydrogen triphosphate (Triphosphoric acid),0:1:2:5:6,phosphate:phosphate:phosphate:phosphate:phosphate,0(phosphate) > 1(phosphate) > 2(phosphate) > 5(phosphate) > 6(phosphate)
O[P](O)(=O)O[P](O)(=O)O[P](O)(O)=O,7.38,0:1:2:5:6,phosphate:phosphate:phosphate:phosphate:phosphate,Hydrogen triphosphate (Triphosphoric acid),0:1:2:5:6,phosphate:phosphate:phosphate:phosphate:phosphate,0(phosphate) > 1(phosphate) > 2(phosphate) > 5(phosphate) > 6(phosphate)
O[P](O)(=O)O[P](O)(=O)O[P](O)(O)=O,8.38,0:1:2:5:6,phosphate:phosphate:phosphate:phosphate:phosphate,Hydrogen triphosphate (Triphosphoric acid),0:1:2:5:6,phosphate:phosphate:phosphate:phosphate:phosphate,0(phosphate) > 1(phosphate) > 2(phosphate) > 5(phosphate) > 6(phosphate)
O[P](O)(=O)O[P](O)(=O)O[P](O)(O)=O,6.66,0:1:2:5:6,phosphate:phosphate:phosphate:phosphate:phosphate,Hydrogen triphosphate (Triphosphoric acid),0:1:2:5:6,phosphate:phosphate:phosphate:phosphate:phosphate,0(phosphate) > 1(phosphate) > 2(phosphate) > 5(phosphate) > 6(phosphate)
O[P](O)(=O)O[P](O)(=O)O[P](O)(O)=O,6.96,0:1:2:5:6,phosphate:phosphate:phosphate:phosphate:phosphate,Hydrogen triphosphate (Triphosphoric acid),0:1:2:5:6,phosphate:phosphate:phosphate:phosphate:phosphate,0(phosphate) > 1(phosphate) > 2(phosphate) > 5(phosphate) > 6(phosphate)
O[P](O)(=O)O[P](O)(=O)O[P](O)(O)=O,8.61,0:1:2:5:6,phosphate:phosphate:phosphate:phosphate:phosphate,Hydrogen triphosphate (Triphosphoric acid),0:1:2:5:6,phosphate:phosphate:phosphate:phosphate:phosphate,0(phosphate) > 1(phosphate) > 2(phosphate) > 5(phosphate) > 6(phosphate)
O[P](O)(=O)O[P](O)(=O)O[P](O)(O)=O,9.25,0:1:2:5:6,phosphate:phosphate:phosphate:phosphate:phosphate,Hydrogen triphosphate (Triphosphoric acid),0:1:2:5:6,phosphate:phosphate:phosphate:phosphate:phosphate,0(phosphate) > 1(phosphate) > 2(phosphate) > 5(phosphate) > 6(phosphate)
O[P](O)(=O)O[P](O)(=O)O[P](O)(O)=O,5.42,0:1:2:5:6,phosphate:phosphate:phosphate:phosphate:phosphate,Hydrogen triphosphate (Triphosphoric acid),0:1:2:5:6,phosphate:phosphate:phosphate:phosphate:phosphate,0(phosphate) > 1(phosphate) > 2(phosphate) > 5(phosphate) > 6(phosphate)
O[P](O)(=O)O[P](O)(=O)O[P](O)(O)=O,5.46,0:1:2:5:6,phosphate:phosphate:phosphate:phosphate:phosphate,Hydrogen triphosphate (Triphosphoric acid),0:1:2:5:6,phosphate:phosphate:phosphate:phosphate:phosphate,0(phosphate) > 1(phosphate) > 2(phosphate) > 5(phosphate) > 6(phosphate)
O[P](O)(=O)O[P](O)(=O)O[P](O)(O)=O,5.87,0:1:2:5:6,phosphate:phosphate:phosphate:phosphate:phosphate,Hydrogen triphosphate (Triphosphoric acid),0:1:2:5:6,phosphate:phosphate:phosphate:phosphate:phosphate,0(phosphate) > 1(phosphate) > 2(phosphate) > 5(phosphate) > 6(phosphate)
O[P](O)(=O)O[P](O)(=O)O[P](O)(O)=O,4.85,0:1:2:5:6,phosphate:phosphate:phosphate:phosphate:phosphate,Hydrogen triphosphate (Triphosphoric acid),0:1:2:5:6,phosphate:phosphate:phosphate:phosphate:phosphate,0(phosphate) > 1(phosphate) > 2(phosphate) > 5(phosphate) > 6(phosphate)
O[P](O)(=O)O[P](O)(=O)O[P](O)(O)=O,4.89,0:1:2:5:6,phosphate:phosphate:phosphate:phosphate:phosphate,Hydrogen triphosphate (Triphosphoric acid),0:1:2:5:6,phosphate:phosphate:phosphate:phosphate:phosphate,0(phosphate) > 1(phosphate) > 2(phosphate) > 5(phosphate) > 6(phosphate)
O[P](O)(=O)O[P](O)(=O)O[P](O)(O)=O,5.79,0:1:2:5:6,phosphate:phosphate:phosphate:phosphate:phosphate,Hydrogen triphosphate (Triphosphoric acid),0:1:2:5:6,phosphate:phosphate:phosphate:phosphate:phosphate,0(phosphate) > 1(phosphate) > 2(phosphate) > 5(phosphate) > 6(phosphate)
O[P](O)(=O)O[P](O)(=O)O[P](O)(O)=O,4.47,0:1:2:5:6,phosphate:phosphate:phosphate:phosphate:phosphate,Hydrogen triphosphate (Triphosphoric acid),0:1:2:5:6,phosphate:phosphate:phosphate:phosphate:phosphate,0(phosphate) > 1(phosphate) > 2(phosphate) > 5(phosphate) > 6(phosphate)
O[P](O)(=O)O[P](O)(=O)O[P](O)(O)=O,4.52,0:1:2:5:6,phosphate:phosphate:phosphate:phosphate:phosphate,Hydrogen triphosphate (Triphosphoric acid),0:1:2:5:6,phosphate:phosphate:phosphate:phosphate:phosphate,0(phosphate) > 1(phosphate) > 2(phosphate) > 5(phosphate) > 6(phosphate)
O[P](O)(=O)O[P](O)(=O)O[P](O)(O)=O,5.68,0:1:2:5:6,phosphate:phosphate:phosphate:phosphate:phosphate,Hydrogen triphosphate (Triphosphoric acid),0:1:2:5:6,phosphate:phosphate:phosphate:phosphate:phosphate,0(phosphate) > 1(phosphate) > 2(phosphate) > 5(phosphate) > 6(phosphate)
O[P](O)(=O)O[P](O)(=O)O[P](O)(O)=O,6.54,0:1:2:5:6,phosphate:phosphate:phosphate:phosphate:phosphate,Hydrogen triphosphate (Triphosphoric acid),0:1:2:5:6,phosphate:phosphate:phosphate:phosphate:phosphate,0(phosphate) > 1(phosphate) > 2(phosphate) > 5(phosphate) > 6(phosphate)
O[P](O)(=O)O[P](O)(=O)O[P](O)(O)=O,1.83,0:1:2:5:6,phosphate:phosphate:phosphate:phosphate:phosphate,Hydrogen triphosphate (Triphosphoric acid),0:1:2:5:6,phosphate:phosphate:phosphate:phosphate:phosphate,0(phosphate) > 1(phosphate) > 2(phosphate) > 5(phosphate) > 6(phosphate)
O[P](O)(=O)O[P](O)(=O)O[P](O)(O)=O,1.6,0:1:2:5:6,phosphate:phosphate:phosphate:phosphate:phosphate,Hydrogen triphosphate (Triphosphoric acid),0:1:2:5:6,phosphate:phosphate:phosphate:phosphate:phosphate,0(phosphate) > 1(phosphate) > 2(phosphate) > 5(phosphate) > 6(phosphate)
O[P](O)(=O)O[P](O)(=O)O[P](O)(O)=O,1.9,0:1:2:5:6,phosphate:phosphate:phosphate:phosphate:phosphate,Hydrogen triphosphate (Triphosphoric acid),0:1:2:5:6,phosphate:phosphate:phosphate:phosphate:phosphate,0(phosphate) > 1(phosphate) > 2(phosphate) > 5(phosphate) > 6(phosphate)
O[P](O)(=O)O[P](O)(=O)O[P](O)(O)=O,2.37,0:1:2:5:6,phosphate:phosphate:phosphate:phosphate:phosphate,Hydrogen triphosphate (Triphosphoric acid),0:1:2:5:6,phosphate:phosphate:phosphate:phosphate:phosphate,0(phosphate) > 1(phosphate) > 2(phosphate) > 5(phosphate) > 6(phosphate)
O[P](O)(=O)O[P](O)(=O)O[P](O)(O)=O,0.9,0:1:2:5:6,phosphate:phosphate:phosphate:phosphate:phosphate,Hydrogen triphosphate (Triphosphoric acid),0:1:2:5:6,phosphate:phosphate:phosphate:phosphate:phosphate,0(phosphate) > 1(phosphate) > 2(phosphate) > 5(phosphate) > 6(phosphate)
O[P](O)(=O)O[P](O)(=O)O[P](O)(O)=O,1.3,0:1:2:5:6,phosphate:phosphate:phosphate:phosphate:phosphate,Hydrogen triphosphate (Triphosphoric acid),0:1:2:5:6,phosphate:phosphate:phosphate:phosphate:phosphate,0(phosphate) > 1(phosphate) > 2(phosphate) > 5(phosphate) > 6(phosphate)
O[P](O)(=O)O[P](O)(=O)O[P](O)(O)=O,0.5,0:1:2:5:6,phosphate:phosphate:phosphate:phosphate:phosphate,Hydrogen triphosphate (Triphosphoric acid),0:1:2:5:6,phosphate:phosphate:phosphate:phosphate:phosphate,0(phosphate) > 1(phosphate) > 2(phosphate) > 5(phosphate) > 6(phosphate)