SMILES,pKa,Dissociable_Atoms,Functional_Group,Name,Dissociable_Atoms_Ordered,Functional_Group_Ordered,Dissociation_Order
NC(=O)[C@@H]1CCCN1C(=O)[C@H](Cc2c[nH]cn2)NC(=O)[C@@H]3CCC(=O)N3,6.3,38,heterocyclic_nitrogen,L-Pyroglutamyl-L-histidyl-L-proline amide,38,heterocyclic_nitrogen,38(heterocyclic_nitrogen)
NC(=O)[C@@H]1CCCN1C(=O)[C@H](Cc2c[nH]cn2)NC(=O)[C@@H]3CCC(=O)N3,6.38,38,heterocyclic_nitrogen,L-Pyroglutamyl-L-histidyl-L-proline amide,38,heterocyclic_nitrogen,38(heterocyclic_nitrogen)
NC(=O)[C@@H]1CCCN1C(=O)[C@@H](Cc2c[nH]cn2)NC(=O)[C@@H]3CCC(=O)N3,6.15,39,heterocyclic_nitrogen,L-Pyroglutamyl-D-histidyl-L-proline amide,39,heterocyclic_nitrogen,39(heterocyclic_nitrogen)
CCOC(=O)CNC(=O)CNC(=O)[C@H](Cc1c[nH]cn1)NC(=O)CNC(=O)CNC(=O)OCc2ccccc2,6.08,37,heterocyclic_nitrogen,Phenylmethyloxycarbonylglycylglycyl-L-histidylglycylglycine ethyl ester,37,heterocyclic_nitrogen,37(heterocyclic_nitrogen)
CN=C(NCCSCc1nc[nH]c1C)NC#N,6.86,25,nitrile,N-Cyano-N'-methyl-N''-[2-(5-methyl-4-imidazolylmethylthio)ethyl]guanidine (Cimetidine),25,nitrile,25(nitrile)
CN=C(NCCSCc1nc[nH]c1C)NC#N,6.65,25,nitrile,N-Cyano-N'-methyl-N''-[2-(5-methyl-4-imidazolylmethylthio)ethyl]guanidine (Cimetidine),25,nitrile,25(nitrile)
Nc1[nH]c2ccccc2n1,7.45,15,ring_nitrogen,2-Aminobenzimidazole,15,ring_nitrogen,15(ring_nitrogen)
CN(C)CCc1c[nH]cn1,9.33,15,heterocyclic_nitrogen,4-(2-Dimethylaminoethyl)imidazole,15,heterocyclic_nitrogen,15(heterocyclic_nitrogen)
CN(C)CCc1c[nH]cn1,5.82,15,heterocyclic_nitrogen,4-(2-Dimethylaminoethyl)imidazole,15,heterocyclic_nitrogen,15(heterocyclic_nitrogen)
COC(=O)C(O)Cc1c[nH]cn1,6.73,20,heterocyclic_nitrogen,2-Hydroxy-3-(4-imidazolyl)propanoic acid methyl ester,20,heterocyclic_nitrogen,20(heterocyclic_nitrogen)
CC(=O)NCCc1c[nH]cn1,7.12,17,heterocyclic_nitrogen,N-Acetylhistamine,17,heterocyclic_nitrogen,17(heterocyclic_nitrogen)
[nH]1cnc2cccnc12,4.1,7,pyridine_nitrogen,"Pyridino[2,3-d]-1,3-diazole (4-Azabenzimidazole)",7,pyridine_nitrogen,7(pyridine_nitrogen)
[nH]1ccnc1c2ccccn2,5.47,10,pyridine_nitrogen,2-(2-Pyridyl)imidazole,10,pyridine_nitrogen,10(pyridine_nitrogen)
[nH]1cnc(c1)c2ccccn2,5.49,10,pyridine_nitrogen,4-(2-Pyridyl)imidazole,10,pyridine_nitrogen,10(pyridine_nitrogen)
Cc1nsc(N)n1,2.5,9,ring_nitrogen,"5-Amino-3-methyl-1,2,4-thiadiazole",9,ring_nitrogen,9(ring_nitrogen)
[nH]1ccnn1,9.26,8,pyridine_nitrogen,"1,2,3-Triazole",8,pyridine_nitrogen,8(pyridine_nitrogen)
Brc1[nH]nnc1Br,5.37,2,amine_secondary,"4,5-Dibromo-1,2,3-triazole",2,amine_secondary,2(amine_secondary)
[nH]1nnc2ccccc12,8.27,0,amine_secondary,Benzotriazole,0,amine_secondary,0(amine_secondary)
[nH]1nnc2ccccc12,8.35,0,amine_secondary,Benzotriazole,0,amine_secondary,0(amine_secondary)
[nH]1nnc2ccccc12,8.38,0,amine_secondary,Benzotriazole,0,amine_secondary,0(amine_secondary)
O=C1NNC(=O)N1,5.69,2,amine_secondary,"1,2,4-Triazolidin-3,5-dione (Urazole)",2,amine_secondary,2(amine_secondary)
[nH]1cnnn1,4.9,8,pyridine_nitrogen,Tetrazole,8,pyridine_nitrogen,8(pyridine_nitrogen)
Cc1[nH]nnn1,5.32,9,ring_nitrogen,5-Methyltetrazole,9,ring_nitrogen,9(ring_nitrogen)
Cc1[nH]nnn1,5.63,9,ring_nitrogen,5-Methyltetrazole,9,ring_nitrogen,9(ring_nitrogen)
C1CC1c2[nH]nnn2,5.41,13,ring_nitrogen,5-Cyclopropyltetrazole,13,ring_nitrogen,13(ring_nitrogen)
[nH]1nnnc1c2ccccc2,4.38,0,amine_secondary,5-Phenyltetrazole,0,amine_secondary,0(amine_secondary)
FC(F)(F)c1[nH]nnn1,1.7,16,ring_nitrogen,5-Trifluoromethyltetrazole,16,ring_nitrogen,16(ring_nitrogen)
[nH]1nnnc1Oc2ccccc2,3.49,0,amine_secondary,5-Phenoxytetrazole,0,amine_secondary,0(amine_secondary)
CSc1[nH]nnn1,4.0,10,ring_nitrogen,5-Methylthiotetrazole,10,ring_nitrogen,10(ring_nitrogen)
OC(=O)c1cnccn1,2.82,12,heterocyclic_nitrogen,"1,4-Diazine-2-carboxylic acid (Pyrazinecarboxylic acid)",12,heterocyclic_nitrogen,12(heterocyclic_nitrogen)
OC(=O)c1cnccn1,2.7,12,heterocyclic_nitrogen,"1,4-Diazine-2-carboxylic acid (Pyrazinecarboxylic acid)",12,heterocyclic_nitrogen,12(heterocyclic_nitrogen)
OC(=O)c1cnccn1,2.73,12,heterocyclic_nitrogen,"1,4-Diazine-2-carboxylic acid (Pyrazinecarboxylic acid)",12,heterocyclic_nitrogen,12(heterocyclic_nitrogen)
OC(=O)c1cnccn1,0.5,12,heterocyclic_nitrogen,"1,4-Diazine-2-carboxylic acid (Pyrazinecarboxylic acid)",12,heterocyclic_nitrogen,12(heterocyclic_nitrogen)
c1ccncc1,5.24,3,pyridine_nitrogen,Pyridine (Azine),3,pyridine_nitrogen,3(pyridine_nitrogen)
c1ccncc1,5.12,3,pyridine_nitrogen,Pyridine (Azine),3,pyridine_nitrogen,3(pyridine_nitrogen)
c1ccncc1,5.22,3,pyridine_nitrogen,Pyridine (Azine),3,pyridine_nitrogen,3(pyridine_nitrogen)
c1ccncc1,5.34,3,pyridine_nitrogen,Pyridine (Azine),3,pyridine_nitrogen,3(pyridine_nitrogen)
c1ccncc1,5.45,3,pyridine_nitrogen,Pyridine (Azine),3,pyridine_nitrogen,3(pyridine_nitrogen)
c1ccncc1,5.19,3,pyridine_nitrogen,Pyridine (Azine),3,pyridine_nitrogen,3(pyridine_nitrogen)
c1ccncc1,5.48,3,pyridine_nitrogen,Pyridine (Azine),3,pyridine_nitrogen,3(pyridine_nitrogen)
c1ccncc1,5.64,3,pyridine_nitrogen,Pyridine (Azine),3,pyridine_nitrogen,3(pyridine_nitrogen)
c1ccncc1,5.2,3,pyridine_nitrogen,Pyridine (Azine),3,pyridine_nitrogen,3(pyridine_nitrogen)
Cc1ccccn1,5.96,6,pyridine_nitrogen,2-Methylpyridine (2-Picoline),6,pyridine_nitrogen,6(pyridine_nitrogen)
Cc1ccccn1,6.05,6,pyridine_nitrogen,2-Methylpyridine (2-Picoline),6,pyridine_nitrogen,6(pyridine_nitrogen)
Cc1ccccn1,5.95,6,pyridine_nitrogen,2-Methylpyridine (2-Picoline),6,pyridine_nitrogen,6(pyridine_nitrogen)
CCc1ccccn1,6.1,7,pyridine_nitrogen,2-Ethylpyridine,7,pyridine_nitrogen,7(pyridine_nitrogen)
CCc1ccccn1,5.97,7,pyridine_nitrogen,2-Ethylpyridine,7,pyridine_nitrogen,7(pyridine_nitrogen)
CCCc1ccccn1,6.14,8,pyridine_nitrogen,2-(Propyl)pyridine,8,pyridine_nitrogen,8(pyridine_nitrogen)
CCCc1ccccn1,5.97,8,pyridine_nitrogen,2-(Propyl)pyridine,8,pyridine_nitrogen,8(pyridine_nitrogen)
Cc1cccnc1,5.72,5,pyridine_nitrogen,3-Methylpyridine (3-Picoline),5,pyridine_nitrogen,5(pyridine_nitrogen)
Cc1cccnc1,5.8,5,pyridine_nitrogen,3-Methylpyridine (3-Picoline),5,pyridine_nitrogen,5(pyridine_nitrogen)
Cc1cccnc1,5.68,5,pyridine_nitrogen,3-Methylpyridine (3-Picoline),5,pyridine_nitrogen,5(pyridine_nitrogen)
CCc1cccnc1,5.83,6,pyridine_nitrogen,3-Ethylpyridine,6,pyridine_nitrogen,6(pyridine_nitrogen)
CCc1cccnc1,5.72,6,pyridine_nitrogen,3-Ethylpyridine,6,pyridine_nitrogen,6(pyridine_nitrogen)
Cc1ccncc1,6.05,4,pyridine_nitrogen,4-Methylpyridine (4-Picoline),4,pyridine_nitrogen,4(pyridine_nitrogen)
Cc1ccncc1,6.1,4,pyridine_nitrogen,4-Methylpyridine (4-Picoline),4,pyridine_nitrogen,4(pyridine_nitrogen)
Cc1ccncc1,6.19,4,pyridine_nitrogen,4-Methylpyridine (4-Picoline),4,pyridine_nitrogen,4(pyridine_nitrogen)
Cc1ccncc1,6.0,4,pyridine_nitrogen,4-Methylpyridine (4-Picoline),4,pyridine_nitrogen,4(pyridine_nitrogen)
CCc1ccncc1,6.06,5,pyridine_nitrogen,4-Ethylpyridine,5,pyridine_nitrogen,5(pyridine_nitrogen)
CCc1ccncc1,6.33,5,pyridine_nitrogen,4-Ethylpyridine,5,pyridine_nitrogen,5(pyridine_nitrogen)
CCc1ccncc1,6.14,5,pyridine_nitrogen,4-Ethylpyridine,5,pyridine_nitrogen,5(pyridine_nitrogen)
CCc1ccncc1,6.02,5,pyridine_nitrogen,4-Ethylpyridine,5,pyridine_nitrogen,5(pyridine_nitrogen)
CC(C)(C)c1ccncc1,6.2,7,pyridine_nitrogen,4-(2-Methyl-2-propyl)pyridine,7,pyridine_nitrogen,7(pyridine_nitrogen)
CC(C)(C)c1ccncc1,5.99,7,pyridine_nitrogen,4-(2-Methyl-2-propyl)pyridine,7,pyridine_nitrogen,7(pyridine_nitrogen)
Cc1cccnc1C,6.75,5,pyridine_nitrogen,"2,3-Dimethylpyridine (2,3-Lutidine)",5,pyridine_nitrogen,5(pyridine_nitrogen)
Cc1cccnc1C,6.58,5,pyridine_nitrogen,"2,3-Dimethylpyridine (2,3-Lutidine)",5,pyridine_nitrogen,5(pyridine_nitrogen)
Cc1ccnc(C)c1,6.67,3,pyridine_nitrogen,"2,4-Dimethylpyridine (2,4-Lutidine)",3,pyridine_nitrogen,3(pyridine_nitrogen)
Cc1ccnc(C)c1,6.83,3,pyridine_nitrogen,"2,4-Dimethylpyridine (2,4-Lutidine)",3,pyridine_nitrogen,3(pyridine_nitrogen)
Cc1ccnc(C)c1,6.63,3,pyridine_nitrogen,"2,4-Dimethylpyridine (2,4-Lutidine)",3,pyridine_nitrogen,3(pyridine_nitrogen)
Cc1ccc(C)nc1,6.58,5,pyridine_nitrogen,"2,5-Dimethylpyridine (2,5-Lutidine)",5,pyridine_nitrogen,5(pyridine_nitrogen)
Cc1ccc(C)nc1,6.42,5,pyridine_nitrogen,"2,5-Dimethylpyridine (2,5-Lutidine)",5,pyridine_nitrogen,5(pyridine_nitrogen)
Cc1cccc(C)n1,6.92,10,ring_nitrogen,"2,6-Dimethylpyridine (2,6-Lutidine)",10,ring_nitrogen,10(ring_nitrogen)
Cc1cccc(C)n1,6.73,10,ring_nitrogen,"2,6-Dimethylpyridine (2,6-Lutidine)",10,ring_nitrogen,10(ring_nitrogen)
Cc1ccncc1C,6.57,4,pyridine_nitrogen,"3,4-Dimethylpyridine (3,4-Lutidine)",4,pyridine_nitrogen,4(pyridine_nitrogen)
Cc1ccncc1C,6.47,4,pyridine_nitrogen,"3,4-Dimethylpyridine (3,4-Lutidine)",4,pyridine_nitrogen,4(pyridine_nitrogen)
Cc1cncc(C)c1,6.24,2,pyridine_nitrogen,"3,5-Dimethylpyridine (3,5-Lutidine)",2,pyridine_nitrogen,2(pyridine_nitrogen)
Cc1cncc(C)c1,6.39,2,pyridine_nitrogen,"3,5-Dimethylpyridine (3,5-Lutidine)",2,pyridine_nitrogen,2(pyridine_nitrogen)
Cc1cncc(C)c1,6.13,2,pyridine_nitrogen,"3,5-Dimethylpyridine (3,5-Lutidine)",2,pyridine_nitrogen,2(pyridine_nitrogen)
CCc1ccc(C)nc1,6.43,6,pyridine_nitrogen,5-Ethyl-2-methylpyridine,6,pyridine_nitrogen,6(pyridine_nitrogen)
CCc1cnccc1C,6.35,3,pyridine_nitrogen,3-Ethyl-4-methylpyridine,3,pyridine_nitrogen,3(pyridine_nitrogen)
Cc1ccc(C)c(C)n1,7.44,13,ring_nitrogen,"2,3,6-Trimethylpyridine (2,3,6-Collidine)",13,ring_nitrogen,13(ring_nitrogen)
Cc1cc(C)nc(C)c1,7.22,4,pyridine_nitrogen,"2,4,6-Trimethylpyridine (2,4,6-Collidine)",4,pyridine_nitrogen,4(pyridine_nitrogen)
C=Cc1ccccn1,5.04,7,pyridine_nitrogen,2-Vinylpyridine,7,pyridine_nitrogen,7(pyridine_nitrogen)
C=Cc1ccccn1,4.98,7,pyridine_nitrogen,2-Vinylpyridine,7,pyridine_nitrogen,7(pyridine_nitrogen)
C=CCc1ccccn1,5.34,8,pyridine_nitrogen,2-Prop-2-enylpyridine (2-Allylpyridine),8,pyridine_nitrogen,8(pyridine_nitrogen)
C=CCCc1ccccn1,5.88,9,pyridine_nitrogen,2-But-3-enylpyridine,9,pyridine_nitrogen,9(pyridine_nitrogen)
C=CCCCc1ccccn1,5.97,10,pyridine_nitrogen,2-Pent-4-enylpyridine,10,pyridine_nitrogen,10(pyridine_nitrogen)
C=Cc1ccncc1,5.4,5,pyridine_nitrogen,4-Vinylpyridine,5,pyridine_nitrogen,5(pyridine_nitrogen)
c1ccc(cc1)c2ccccn2,4.64,11,pyridine_nitrogen,2-Phenylpyridine,11,pyridine_nitrogen,11(pyridine_nitrogen)
c1ccc(cc1)c2cccnc2,4.81,9,pyridine_nitrogen,3-Phenylpyridine,9,pyridine_nitrogen,9(pyridine_nitrogen)
c1ccc(cc1)c2ccncc2,5.38,8,pyridine_nitrogen,4-Phenylpyridine,8,pyridine_nitrogen,8(pyridine_nitrogen)
C(c1ccccc1)c2ccccn2,5.12,12,pyridine_nitrogen,2-Benzylpyridine,12,pyridine_nitrogen,12(pyridine_nitrogen)
C(c1ccccc1)c2ccccn2,5.13,12,pyridine_nitrogen,2-Benzylpyridine,12,pyridine_nitrogen,12(pyridine_nitrogen)
N#Cc1cccnc1,1.64,6,pyridine_nitrogen,3-Cyanopyridine,6,pyridine_nitrogen,6(pyridine_nitrogen)
N#Cc1cccnc1,1.17,6,pyridine_nitrogen,3-Cyanopyridine,6,pyridine_nitrogen,6(pyridine_nitrogen)
N#CCc1cccnc1,4.06,7,pyridine_nitrogen,3-(Cyanomethyl)pyridine,7,pyridine_nitrogen,7(pyridine_nitrogen)
N#Cc1ccncc1,1.48,5,pyridine_nitrogen,4-Cyanopyridine,5,pyridine_nitrogen,5(pyridine_nitrogen)
Cc1cc(cc(C)n1)C#N,3.68,16,nitrile,"4-Cyano-2,6-dimethylpyridine",16,nitrile,16(nitrile)
[O-][N+](=O)c1ccccn1,2.06,8,pyridine_nitrogen,2-Nitropyridine,8,pyridine_nitrogen,8(pyridine_nitrogen)
[O-][N+](=O)c1cccnc1,0.8,7,pyridine_nitrogen,3-Nitropyridine,7,pyridine_nitrogen,7(pyridine_nitrogen)
[O-][N+](=O)c1ccncc1,1.23,6,pyridine_nitrogen,4-Nitropyridine,6,pyridine_nitrogen,6(pyridine_nitrogen)
Cc1ccc(c(C)n1)[N+]([O-])=O,2.87,14,n_oxide,"2,6-Dimethyl-3-nitropyridine",14,n_oxide,14(n_oxide)
Cc1cc(cc(C)n1)[N+]([O-])=O,3.15,14,n_oxide,"2,6-Dimethyl-4-nitropyridine",14,n_oxide,14(n_oxide)
Cc1cc(C)c(c(C)n1)[N+]([O-])=O,3.47,8,pyridine_nitrogen,"2,4,6-Trimethyl-3-nitropyridine",8,pyridine_nitrogen,8(pyridine_nitrogen)
Brc1ccccn1,0.7,6,pyridine_nitrogen,2-Bromopyridine,6,pyridine_nitrogen,6(pyridine_nitrogen)
Brc1cccnc1,3.08,5,pyridine_nitrogen,3-Bromopyridine,5,pyridine_nitrogen,5(pyridine_nitrogen)
Brc1cccnc1,2.87,5,pyridine_nitrogen,3-Bromopyridine,5,pyridine_nitrogen,5(pyridine_nitrogen)
Brc1ccncc1,3.68,4,pyridine_nitrogen,4-Bromopyridine,4,pyridine_nitrogen,4(pyridine_nitrogen)
Cc1cc(Br)cc(C)n1,5.41,14,ring_nitrogen,"4-Bromo-2,6-dimethylpyridine",14,ring_nitrogen,14(ring_nitrogen)
Ic1cccnc1,3.46,5,pyridine_nitrogen,3-Iodopyridine,5,pyridine_nitrogen,5(pyridine_nitrogen)
Ic1cccnc1,3.25,5,pyridine_nitrogen,3-Iodopyridine,5,pyridine_nitrogen,5(pyridine_nitrogen)
Cc1ccc(c(C)n1)[S](O)(=O)=O,4.8,11,ring_nitrogen,"2,6-Dimethylpyridine-3-sulfonic acid",11,ring_nitrogen,11(ring_nitrogen)
Oc1cccc[n+]1[O-],5.81,0,phenol,2-Hydroxypyridine-N-oxide,0,phenol,0(phenol)
Oc1cccnc1,8.5,5,pyridine_nitrogen,3-Hydroxypyridine,5,pyridine_nitrogen,5(pyridine_nitrogen)
Oc1cccnc1,8.75,5,pyridine_nitrogen,3-Hydroxypyridine,5,pyridine_nitrogen,5(pyridine_nitrogen)
Oc1cccnc1,4.89,5,pyridine_nitrogen,3-Hydroxypyridine,5,pyridine_nitrogen,5(pyridine_nitrogen)
Oc1cccnc1,5.0,5,pyridine_nitrogen,3-Hydroxypyridine,5,pyridine_nitrogen,5(pyridine_nitrogen)
Oc1cccnc1,5.09,5,pyridine_nitrogen,3-Hydroxypyridine,5,pyridine_nitrogen,5(pyridine_nitrogen)
Oc1cccnc1,4.83,5,pyridine_nitrogen,3-Hydroxypyridine,5,pyridine_nitrogen,5(pyridine_nitrogen)
CN1C=CC=C(O)C1=O,8.89,6,phenol,"1-Methyl-3-hydroxy-1,2-dihydropyridin-2-one",6,phenol,6(phenol)
CCCCN1C=CC=C(O)C1=O,9.06,9,phenol,"1-Butyl-2,3-dihydroxypyridine (1-Butyl-3-hydroxy-1,2-dihydropyridin-2-one)",9,phenol,9(phenol)
Cc1ccc(O)cn1,8.96,10,heterocyclic_nitrogen,5-Hydroxy-2-methylpyridine,10,heterocyclic_nitrogen,10(heterocyclic_nitrogen)
Cc1ccc(O)cn1,5.44,10,heterocyclic_nitrogen,5-Hydroxy-2-methylpyridine,10,heterocyclic_nitrogen,10(heterocyclic_nitrogen)
O=Cc1ccccn1,3.8,7,pyridine_nitrogen,Pyridine-2-carboxaldehyde,7,pyridine_nitrogen,7(pyridine_nitrogen)
O=Cc1cccnc1,3.8,6,pyridine_nitrogen,Pyridine-3-carboxaldehyde,6,pyridine_nitrogen,6(pyridine_nitrogen)
O=Cc1ccncc1,4.77,5,pyridine_nitrogen,Pyridine-4-carboxaldehyde,5,pyridine_nitrogen,5(pyridine_nitrogen)
COc1cccnc1C=O,2.89,6,pyridine_nitrogen,3-Methoxypyridine-2-carboxaldehyde,6,pyridine_nitrogen,6(pyridine_nitrogen)
COc1cnccc1C=O,4.45,3,pyridine_nitrogen,3-Methoxypyridine-4-carboxaldehyde,3,pyridine_nitrogen,3(pyridine_nitrogen)
Oc1cccnc1C=O,6.95,5,pyridine_nitrogen,3-Hydroxypyridine-2-carboxaldehyde,5,pyridine_nitrogen,5(pyridine_nitrogen)
Oc1cccnc1C=O,3.4,5,pyridine_nitrogen,3-Hydroxypyridine-2-carboxaldehyde,5,pyridine_nitrogen,5(pyridine_nitrogen)
OCc1ccccn1,4.9,7,pyridine_nitrogen,2-(Hydroxymethyl)pyridine,7,pyridine_nitrogen,7(pyridine_nitrogen)
OCc1ccccn1,4.95,7,pyridine_nitrogen,2-(Hydroxymethyl)pyridine,7,pyridine_nitrogen,7(pyridine_nitrogen)
OCc1ccccn1,5.09,7,pyridine_nitrogen,2-(Hydroxymethyl)pyridine,7,pyridine_nitrogen,7(pyridine_nitrogen)
OCc1ccccn1,5.25,7,pyridine_nitrogen,2-(Hydroxymethyl)pyridine,7,pyridine_nitrogen,7(pyridine_nitrogen)
OCc1ccccn1,4.86,7,pyridine_nitrogen,2-(Hydroxymethyl)pyridine,7,pyridine_nitrogen,7(pyridine_nitrogen)
Cc1cccc(CO)n1,5.43,11,ring_nitrogen,2-(Hydroxymethyl)-6-methylpyridine,11,ring_nitrogen,11(ring_nitrogen)
OCCc1ccccn1,5.37,8,pyridine_nitrogen,2-(2-Hydroxyethyl)pyridine,8,pyridine_nitrogen,8(pyridine_nitrogen)
OCCc1ccccn1,5.31,8,pyridine_nitrogen,2-(2-Hydroxyethyl)pyridine,8,pyridine_nitrogen,8(pyridine_nitrogen)
Cc1cccc(CCO)n1,6.1,12,ring_nitrogen,2-(2-Hydroxyethyl)-6-methylpyridine,12,ring_nitrogen,12(ring_nitrogen)
CC(O)Cc1ccccn1,5.48,9,pyridine_nitrogen,2-(2-Hydroxypropyl)pyridine,9,pyridine_nitrogen,9(pyridine_nitrogen)
OC(Cc1ccccn1)c2ccccc2,5.2,8,pyridine_nitrogen,2-(2-Hydroxy-2-phenylethyl)pyridine,8,pyridine_nitrogen,8(pyridine_nitrogen)
OCCCc1ccccn1,5.71,9,pyridine_nitrogen,2-(3-Hydroxypropyl)pyridine,9,pyridine_nitrogen,9(pyridine_nitrogen)
OCCCc1ccccn1,5.61,9,pyridine_nitrogen,2-(3-Hydroxypropyl)pyridine,9,pyridine_nitrogen,9(pyridine_nitrogen)
OCCCCc1ccccn1,5.83,10,pyridine_nitrogen,2-(4-Hydroxybutyl)pyridine,10,pyridine_nitrogen,10(pyridine_nitrogen)
OCCCCCc1ccccn1,5.93,11,pyridine_nitrogen,2-(5-Hydroxypentyl)pyridine,11,pyridine_nitrogen,11(pyridine_nitrogen)
OCc1cccnc1,5.0,6,pyridine_nitrogen,3-(Hydroxymethyl)pyridine,6,pyridine_nitrogen,6(pyridine_nitrogen)
OCc1cccnc1,5.08,6,pyridine_nitrogen,3-(Hydroxymethyl)pyridine,6,pyridine_nitrogen,6(pyridine_nitrogen)
OCc1cccnc1,5.1,6,pyridine_nitrogen,3-(Hydroxymethyl)pyridine,6,pyridine_nitrogen,6(pyridine_nitrogen)
OCc1cccnc1,4.9,6,pyridine_nitrogen,3-(Hydroxymethyl)pyridine,6,pyridine_nitrogen,6(pyridine_nitrogen)
OCCc1cccnc1,5.38,7,pyridine_nitrogen,3-(2-Hydroxyethyl)pyridine,7,pyridine_nitrogen,7(pyridine_nitrogen)
OCCCc1cccnc1,5.57,8,pyridine_nitrogen,3-(3-Hydroxypropyl)pyridine,8,pyridine_nitrogen,8(pyridine_nitrogen)
OCCCc1cccnc1,5.65,8,pyridine_nitrogen,3-(3-Hydroxypropyl)pyridine,8,pyridine_nitrogen,8(pyridine_nitrogen)
OCCCc1cccnc1,5.47,8,pyridine_nitrogen,3-(3-Hydroxypropyl)pyridine,8,pyridine_nitrogen,8(pyridine_nitrogen)
OCCCCc1cccnc1,5.7,9,pyridine_nitrogen,3-(4-Hydroxybutyl)pyridine,9,pyridine_nitrogen,9(pyridine_nitrogen)
OCCCCCc1cccnc1,5.72,10,pyridine_nitrogen,3-(5-Hydroxypentyl)pyridine,10,pyridine_nitrogen,10(pyridine_nitrogen)
OCc1ccncc1,5.41,5,pyridine_nitrogen,4-(Hydroxymethyl)pyridine,5,pyridine_nitrogen,5(pyridine_nitrogen)
OCc1ccncc1,5.53,5,pyridine_nitrogen,4-(Hydroxymethyl)pyridine,5,pyridine_nitrogen,5(pyridine_nitrogen)
OCc1ccncc1,5.33,5,pyridine_nitrogen,4-(Hydroxymethyl)pyridine,5,pyridine_nitrogen,5(pyridine_nitrogen)
OCCc1ccncc1,5.68,6,pyridine_nitrogen,4-(2-Hydroxyethyl)pyridine,6,pyridine_nitrogen,6(pyridine_nitrogen)
OCCc1ccncc1,5.6,6,pyridine_nitrogen,4-(2-Hydroxyethyl)pyridine,6,pyridine_nitrogen,6(pyridine_nitrogen)
OCCCc1ccncc1,5.9,7,pyridine_nitrogen,4-(3-Hydroxypropyl)pyridine,7,pyridine_nitrogen,7(pyridine_nitrogen)
OCCCc1ccncc1,5.84,7,pyridine_nitrogen,4-(3-Hydroxypropyl)pyridine,7,pyridine_nitrogen,7(pyridine_nitrogen)
OCCCCc1ccncc1,6.01,8,pyridine_nitrogen,4-(4-Hydroxybutyl)pyridine,8,pyridine_nitrogen,8(pyridine_nitrogen)
OCCCCCc1ccncc1,6.04,9,pyridine_nitrogen,4-(5-Hydroxypentyl)pyridine,9,pyridine_nitrogen,9(pyridine_nitrogen)
OCc1cccc(CO)n1,4.39,12,ring_nitrogen,"2,6-Bis(hydroxymethyl)pyridine",12,ring_nitrogen,12(ring_nitrogen)
COc1cccnc1,4.91,6,pyridine_nitrogen,3-Methoxypyridine,6,pyridine_nitrogen,6(pyridine_nitrogen)
COc1cccnc1,4.88,6,pyridine_nitrogen,3-Methoxypyridine,6,pyridine_nitrogen,6(pyridine_nitrogen)
COc1ccncc1,6.47,5,pyridine_nitrogen,4-Methoxypyridine,5,pyridine_nitrogen,5(pyridine_nitrogen)
COc1cc(C)nc(C)c1,8.04,4,pyridine_nitrogen,"2,6-Dimethyl-4-methoxypyridine",4,pyridine_nitrogen,4(pyridine_nitrogen)
O=Cc1ccccn1,3.92,7,pyridine_nitrogen,Pyridine-2-carboxaldehyde,7,pyridine_nitrogen,7(pyridine_nitrogen)
O=Cc1cccnc1,3.7,6,pyridine_nitrogen,Pyridine-3-carboxaldehyde,6,pyridine_nitrogen,6(pyridine_nitrogen)
O=Cc1ccncc1,4.53,5,pyridine_nitrogen,Pyridine-4-carboxaldehyde,5,pyridine_nitrogen,5(pyridine_nitrogen)
O=Cc1cccc(C=O)n1,2.13,14,ring_nitrogen,"Pyridine-2,6-dicarboxaldehyde",14,ring_nitrogen,14(ring_nitrogen)
CC(=O)c1ccccn1,2.66,8,pyridine_nitrogen,2-Acetylpyridine,8,pyridine_nitrogen,8(pyridine_nitrogen)
CC(=O)c1cccnc1,3.48,7,pyridine_nitrogen,3-Acetylpyridine,7,pyridine_nitrogen,7(pyridine_nitrogen)
CC(=O)c1cccnc1,3.28,7,pyridine_nitrogen,3-Acetylpyridine,7,pyridine_nitrogen,7(pyridine_nitrogen)
CC(=O)c1ccncc1,3.7,6,pyridine_nitrogen,4-Acetylpyridine,6,pyridine_nitrogen,6(pyridine_nitrogen)
CC(=O)c1ccncc1,3.51,6,pyridine_nitrogen,4-Acetylpyridine,6,pyridine_nitrogen,6(pyridine_nitrogen)
CC(=O)c1c(C)cc(C)nc1C,5.91,6,pyridine_nitrogen,"3-Acetyl-2,4,6-trimethylpyridine",6,pyridine_nitrogen,6(pyridine_nitrogen)
COC(=O)c1ccccn1,2.21,9,pyridine_nitrogen,Pyridine-2-carboxylic acid methyl ester (Picolinic acid methyl ester),9,pyridine_nitrogen,9(pyridine_nitrogen)
COC(=O)c1cccnc1,3.13,8,pyridine_nitrogen,Pyridine-3-carboxylic acid methyl ester (Nicotinic acid methyl ester),8,pyridine_nitrogen,8(pyridine_nitrogen)
COC(=O)c1ccncc1,3.26,7,pyridine_nitrogen,Pyridine-4-carboxylic acid methyl ester (Isonicotinic acid methyl ester),7,pyridine_nitrogen,7(pyridine_nitrogen)
CCOC(=O)c1cc(C)nc(C)c1,5.27,6,pyridine_nitrogen,"2,6-Dimethylpyridine-4-carboxylic acid ethyl ester",6,pyridine_nitrogen,6(pyridine_nitrogen)