SMILES,pKa,Dissociable_Atoms,Functional_Group,Name,Equilibrium,Ionic,Temperature,Dissociable_Atoms_Ordered,Functional_Group_Ordered,Dissociation_Order,Dissociating_Group,Functional_Group_pKa_Ranges
OCCN1CCN(CC1)CC[S](O)(=O)=O,7.749,3,tertiary_amine,N-(2-Hydroxyethyl)piperazine-N'-ethylenesulfonic acid (HEPES),[HL]/[L][H],0.0,10.0,3,tertiary_amine,3(tertiary_amine),Unknown,tertiary_amine(Unknown)
OCCN1CCN(CC1)CC[S](O)(=O)=O,7.564,3,tertiary_amine,N-(2-Hydroxyethyl)piperazine-N'-ethylenesulfonic acid (HEPES),[HL]/[L][H],0.0,25.0,3,tertiary_amine,3(tertiary_amine),Unknown,tertiary_amine(Unknown)
OCCN1CCN(CC1)CC[S](O)(=O)=O,7.393,3,tertiary_amine,N-(2-Hydroxyethyl)piperazine-N'-ethylenesulfonic acid (HEPES),[HL]/[L][H],0.0,40.0,3,tertiary_amine,3(tertiary_amine),Unknown,tertiary_amine(Unknown)
OCCN1CCN(CCC[S](O)(=O)=O)CC1,8.15,3,tertiary_amine,"N-(2-Hydroxyethyl)piperazine-N'-(1,3-propylenesulfonic acid) (HEPPS)",[HL]/[L][H],0.0,10.0,3,tertiary_amine,3(tertiary_amine),Unknown,tertiary_amine(Unknown)
OCCN1CCN(CCC[S](O)(=O)=O)CC1,7.957,3,tertiary_amine,"N-(2-Hydroxyethyl)piperazine-N'-(1,3-propylenesulfonic acid) (HEPPS)",[HL]/[L][H],0.0,25.0,3,tertiary_amine,3(tertiary_amine),Unknown,tertiary_amine(Unknown)
OCCN1CCN(CCC[S](O)(=O)=O)CC1,7.776,3,tertiary_amine,"N-(2-Hydroxyethyl)piperazine-N'-(1,3-propylenesulfonic acid) (HEPPS)",[HL]/[L][H],0.0,40.0,3,tertiary_amine,3(tertiary_amine),Unknown,tertiary_amine(Unknown)
NCCN1CCNCC1,9.55,0:6,amine_primary:amine_secondary,N-(2-Aminoethyl)piperazine,[HL]/[L][H],0.0,25.0,0:6,amine_primary:amine_secondary,0(amine_primary) > 6(amine_secondary),amine_primary,amine_primary(9.0~11.0); amine_secondary(9.5~11.5)
NCCN1CCNCC1,8.44,0:6,amine_primary:amine_secondary,N-(2-Aminoethyl)piperazine,[H₂L]/[HL][H],0.0,25.0,0:6,amine_primary:amine_secondary,0(amine_primary) > 6(amine_secondary),amine_primary,amine_primary(9.0~11.0); amine_secondary(9.5~11.5)
NCCN1CCN(CCN)CC1,9.64,3,tertiary_amine,"N,N'-Bis(2-aminoethyl)piperazine",[HL]/[L][H],0.1,25.0,3,tertiary_amine,3(tertiary_amine),Unknown,tertiary_amine(Unknown)
NCCN1CCN(CCN)CC1,8.98,3,tertiary_amine,"N,N'-Bis(2-aminoethyl)piperazine",[H₂L]/[HL][H],0.1,25.0,3,tertiary_amine,3(tertiary_amine),Unknown,tertiary_amine(Unknown)
NCCN1CCN(CCN)CC1,5.14,3,tertiary_amine,"N,N'-Bis(2-aminoethyl)piperazine",[H₃L]/[H₂L][H],0.1,25.0,3,tertiary_amine,3(tertiary_amine),Unknown,tertiary_amine(Unknown)
NCCCN1CCN(CCCN)CC1,10.22,4,tertiary_amine,"N,N'-Bis(3-aminopropyl)piperazine",[HL]/[L][H],0.0,30.0,4,tertiary_amine,4(tertiary_amine),Unknown,tertiary_amine(Unknown)
NCCCN1CCN(CCCN)CC1,9.28,4,tertiary_amine,"N,N'-Bis(3-aminopropyl)piperazine",[H₂L]/[HL][H],0.0,30.0,4,tertiary_amine,4(tertiary_amine),Unknown,tertiary_amine(Unknown)
NCCCN1CCN(CCCN)CC1,6.15,4,tertiary_amine,"N,N'-Bis(3-aminopropyl)piperazine",[H₃L]/[H₂L][H],0.0,30.0,4,tertiary_amine,4(tertiary_amine),Unknown,tertiary_amine(Unknown)
C1CN2CCN1CC2,8.82,1:4,tertiary_amine:tertiary_amine,"1,4-Diazabicyclo[2.2.2]octane (Triethylenediamine)",[HL]/[L][H],0.1,25.0,1:4,tertiary_amine:tertiary_amine,1(tertiary_amine) > 4(tertiary_amine),Unknown,tertiary_amine(Unknown); tertiary_amine(Unknown)
C1CN2CCN1CC2,2.97,1:4,tertiary_amine:tertiary_amine,"1,4-Diazabicyclo[2.2.2]octane (Triethylenediamine)",[H₂L]/[HL][H],0.1,25.0,1:4,tertiary_amine:tertiary_amine,1(tertiary_amine) > 4(tertiary_amine),Unknown,tertiary_amine(Unknown); tertiary_amine(Unknown)
C1CNCCNC1,10.26,2:5,amine_secondary:amine_secondary,"1,4-Diazacycloheptane (Perhydro-1,4-diazepine)(Homopiperazine)",[HL]/[L][H],0.0,25.0,2:5,amine_secondary:amine_secondary,2(amine_secondary) > 5(amine_secondary),amine_secondary,amine_secondary(9.5~11.5); amine_secondary(9.5~11.5)
C1CNCCNC1,6.6,2:5,amine_secondary:amine_secondary,"1,4-Diazacycloheptane (Perhydro-1,4-diazepine)(Homopiperazine)",[H₂L]/[HL][H],0.0,25.0,2:5,amine_secondary:amine_secondary,2(amine_secondary) > 5(amine_secondary),amine_secondary,amine_secondary(9.5~11.5); amine_secondary(9.5~11.5)
NCCN1CCCNCC1,10.09,3,tertiary_amine,"N-(2-Aminoethyl)-1,4-diazacycloheptane",[HL]/[L][H],0.1,25.0,3,tertiary_amine,3(tertiary_amine),Unknown,tertiary_amine(Unknown)
NCCN1CCCNCC1,9.22,3,tertiary_amine,"N-(2-Aminoethyl)-1,4-diazacycloheptane",[H₂L]/[HL][H],0.1,25.0,3,tertiary_amine,3(tertiary_amine),Unknown,tertiary_amine(Unknown)
NCCN1CCCNCC1,2.8,3,tertiary_amine,"N-(2-Aminoethyl)-1,4-diazacycloheptane",[H₃L]/[H₂L][H],0.1,25.0,3,tertiary_amine,3(tertiary_amine),Unknown,tertiary_amine(Unknown)
NCCN1CCCN(CCN)CC1,9.7,3,tertiary_amine,"N,N'-Bis(2-Aminoethyl)-1,4-diazacycloheptane",[HL]/[L][H],0.1,25.0,3,tertiary_amine,3(tertiary_amine),Unknown,tertiary_amine(Unknown)
NCCN1CCCN(CCN)CC1,9.18,3,tertiary_amine,"N,N'-Bis(2-Aminoethyl)-1,4-diazacycloheptane",[H₂L]/[HL][H],0.1,25.0,3,tertiary_amine,3(tertiary_amine),Unknown,tertiary_amine(Unknown)
NCCN1CCCN(CCN)CC1,6.19,3,tertiary_amine,"N,N'-Bis(2-Aminoethyl)-1,4-diazacycloheptane",[H₃L]/[H₂L][H],0.1,25.0,3,tertiary_amine,3(tertiary_amine),Unknown,tertiary_amine(Unknown)
NCCCN1CCCN(CCCN)CC1,10.05,4,tertiary_amine,"N,N'-Bis(3-Aminopropyl)-1,4-diazacycloheptane",[HL]/[L][H],0.1,25.0,4,tertiary_amine,4(tertiary_amine),Unknown,tertiary_amine(Unknown)
NCCCN1CCCN(CCCN)CC1,9.81,4,tertiary_amine,"N,N'-Bis(3-Aminopropyl)-1,4-diazacycloheptane",[H₂L]/[HL][H],0.1,25.0,4,tertiary_amine,4(tertiary_amine),Unknown,tertiary_amine(Unknown)
NCCCN1CCCN(CCCN)CC1,8.01,4,tertiary_amine,"N,N'-Bis(3-Aminopropyl)-1,4-diazacycloheptane",[H₃L]/[H₂L][H],0.1,25.0,4,tertiary_amine,4(tertiary_amine),Unknown,tertiary_amine(Unknown)
NCCCN1CCCN(CCCN)CC1,4.84,4,tertiary_amine,"N,N'-Bis(3-Aminopropyl)-1,4-diazacycloheptane",[H₄L]/[H₃L][H],0.1,25.0,4,tertiary_amine,4(tertiary_amine),Unknown,tertiary_amine(Unknown)
C1CNCCCNC1,10.65,2:6,amine_secondary:amine_secondary,"1,5-Diazacyclooctane",[HL]/[L][H],0.1,25.0,2:6,amine_secondary:amine_secondary,2(amine_secondary) > 6(amine_secondary),amine_secondary,amine_secondary(9.5~11.5); amine_secondary(9.5~11.5)
C1CNCCCNC1,7.07,2:6,amine_secondary:amine_secondary,"1,5-Diazacyclooctane",[H₂L]/[HL][H],0.1,25.0,2:6,amine_secondary:amine_secondary,2(amine_secondary) > 6(amine_secondary),amine_secondary,amine_secondary(9.5~11.5); amine_secondary(9.5~11.5)
NCCN1CCCN(CCN)CCC1,10.78,3,tertiary_amine,"N,N'-Bis(2-aminoethyl)-1,5-diazacyclooctane",[HL]/[L][H],0.1,25.0,3,tertiary_amine,3(tertiary_amine),Unknown,tertiary_amine(Unknown)
NCCN1CCCN(CCN)CCC1,9.42,3,tertiary_amine,"N,N'-Bis(2-aminoethyl)-1,5-diazacyclooctane",[H₂L]/[HL][H],0.1,25.0,3,tertiary_amine,3(tertiary_amine),Unknown,tertiary_amine(Unknown)
NCCN1CCCN(CCN)CCC1,6.03,3,tertiary_amine,"N,N'-Bis(2-aminoethyl)-1,5-diazacyclooctane",[H₃L]/[H₂L][H],0.1,25.0,3,tertiary_amine,3(tertiary_amine),Unknown,tertiary_amine(Unknown)
C1CNCCNCCN1,10.44,2:5,amine_secondary:amine_secondary,"1,4,7-Triazacyclononane ([9]aneN3)",[HL]/[L][H],0.1,25.0,2:5,amine_secondary:amine_secondary,2(amine_secondary) > 5(amine_secondary),amine_secondary,amine_secondary(9.5~11.5); amine_secondary(9.5~11.5)
C1CNCCNCCN1,10.79,2:5,amine_secondary:amine_secondary,"1,4,7-Triazacyclononane ([9]aneN3)",[HL]/[L][H],0.5,25.0,2:5,amine_secondary:amine_secondary,2(amine_secondary) > 5(amine_secondary),amine_secondary,amine_secondary(9.5~11.5); amine_secondary(9.5~11.5)
C1CNCCNCCN1,6.81,2:5,amine_secondary:amine_secondary,"1,4,7-Triazacyclononane ([9]aneN3)",[H₂L]/[HL][H],0.1,25.0,2:5,amine_secondary:amine_secondary,2(amine_secondary) > 5(amine_secondary),amine_secondary,amine_secondary(9.5~11.5); amine_secondary(9.5~11.5)
C1CNCCNCCN1,7.09,2:5,amine_secondary:amine_secondary,"1,4,7-Triazacyclononane ([9]aneN3)",[H₂L]/[HL][H],0.5,25.0,2:5,amine_secondary:amine_secondary,2(amine_secondary) > 5(amine_secondary),amine_secondary,amine_secondary(9.5~11.5); amine_secondary(9.5~11.5)
NCCCN1CCCNCCCNCCC1,12.0,4,tertiary_amine,"1-(3-Aminopropyl)-1,5,9-triazacyclododecane",[HL]/[L][H],0.1,25.0,4,tertiary_amine,4(tertiary_amine),Unknown,tertiary_amine(Unknown)
NCCCN1CCCNCCCNCCC1,9.9,4,tertiary_amine,"1-(3-Aminopropyl)-1,5,9-triazacyclododecane",[H₂L]/[HL][H],0.1,25.0,4,tertiary_amine,4(tertiary_amine),Unknown,tertiary_amine(Unknown)
NCCCN1CCCNCCCNCCC1,5.99,4,tertiary_amine,"1-(3-Aminopropyl)-1,5,9-triazacyclododecane",[H₃L]/[H₂L][H],0.1,25.0,4,tertiary_amine,4(tertiary_amine),Unknown,tertiary_amine(Unknown)
NCCCN1CCCNCCCNCCC1,2.2,4,tertiary_amine,"1-(3-Aminopropyl)-1,5,9-triazacyclododecane",[H₄L]/[H₃L][H],0.1,25.0,4,tertiary_amine,4(tertiary_amine),Unknown,tertiary_amine(Unknown)
C1CNCCCN(Cc2cc[nH]n2)NC1,11.87,2:11:13,amine_secondary:amine_secondary:amine_secondary,"1-(3-Pyrazolylmethyl)-1,5,9-triazacyclononane",[HL]/[L][H],0.1,25.0,2:11:13,amine_secondary:amine_secondary:amine_secondary,2(amine_secondary) > 11(amine_secondary) > 13(amine_secondary),amine_secondary,amine_secondary(9.5~11.5); amine_secondary(9.5~11.5); amine_secondary(9.5~11.5)
C1CNCCCN(Cc2cc[nH]n2)NC1,6.73,2:11:13,amine_secondary:amine_secondary:amine_secondary,"1-(3-Pyrazolylmethyl)-1,5,9-triazacyclononane",[H₂L]/[HL][H],0.1,25.0,2:11:13,amine_secondary:amine_secondary:amine_secondary,2(amine_secondary) > 11(amine_secondary) > 13(amine_secondary),amine_secondary,amine_secondary(9.5~11.5); amine_secondary(9.5~11.5); amine_secondary(9.5~11.5)
C1CNCCCN(Cc2cc[nH]n2)NC1,1.86,2:11:13,amine_secondary:amine_secondary:amine_secondary,"1-(3-Pyrazolylmethyl)-1,5,9-triazacyclononane",[H₃L]/[H₂L][H],0.1,25.0,2:11:13,amine_secondary:amine_secondary:amine_secondary,2(amine_secondary) > 11(amine_secondary) > 13(amine_secondary),amine_secondary,amine_secondary(9.5~11.5); amine_secondary(9.5~11.5); amine_secondary(9.5~11.5)
C1CNCCCN(Cc2c[nH]cn2)NC1,10.74,2:10:13,amine_secondary:amine_secondary:amine_secondary,"1-(4-Imidazolylmethyl)-1,5,9-triazacyclononane",[HL]/[L][H],0.1,25.0,2:10:13,amine_secondary:amine_secondary:amine_secondary,2(amine_secondary) > 10(amine_secondary) > 13(amine_secondary),amine_secondary,amine_secondary(9.5~11.5); amine_secondary(9.5~11.5); amine_secondary(9.5~11.5)
C1CNCCCN(Cc2c[nH]cn2)NC1,7.22,2:10:13,amine_secondary:amine_secondary:amine_secondary,"1-(4-Imidazolylmethyl)-1,5,9-triazacyclononane",[H₂L]/[HL][H],0.1,25.0,2:10:13,amine_secondary:amine_secondary:amine_secondary,2(amine_secondary) > 10(amine_secondary) > 13(amine_secondary),amine_secondary,amine_secondary(9.5~11.5); amine_secondary(9.5~11.5); amine_secondary(9.5~11.5)
C1CNCCCN(Cc2c[nH]cn2)NC1,4.91,2:10:13,amine_secondary:amine_secondary:amine_secondary,"1-(4-Imidazolylmethyl)-1,5,9-triazacyclononane",[H₃L]/[H₂L][H],0.1,25.0,2:10:13,amine_secondary:amine_secondary:amine_secondary,2(amine_secondary) > 10(amine_secondary) > 13(amine_secondary),amine_secondary,amine_secondary(9.5~11.5); amine_secondary(9.5~11.5); amine_secondary(9.5~11.5)
SCCN1CCN(CCS)CCN(CCS)CC1,13.4,3,tertiary_amine,"1,4,7-Tris(2-mercaptoethyl)-1,4,7-triazacyclononane",[HL]/[L][H],0.1,25.0,3,tertiary_amine,3(tertiary_amine),Unknown,tertiary_amine(Unknown)
SCCN1CCN(CCS)CCN(CCS)CC1,10.97,3,tertiary_amine,"1,4,7-Tris(2-mercaptoethyl)-1,4,7-triazacyclononane",[H₂L]/[HL][H],0.1,25.0,3,tertiary_amine,3(tertiary_amine),Unknown,tertiary_amine(Unknown)
SCCN1CCN(CCS)CCN(CCS)CC1,9.45,3,tertiary_amine,"1,4,7-Tris(2-mercaptoethyl)-1,4,7-triazacyclononane",[H₃L]/[H₂L][H],0.1,25.0,3,tertiary_amine,3(tertiary_amine),Unknown,tertiary_amine(Unknown)
SCCN1CCN(CCS)CCN(CCS)CC1,8.26,3,tertiary_amine,"1,4,7-Tris(2-mercaptoethyl)-1,4,7-triazacyclononane",[H₄L]/[H₃L][H],0.1,25.0,3,tertiary_amine,3(tertiary_amine),Unknown,tertiary_amine(Unknown)
SCCN1CCN(CCS)CCN(CCS)CC1,2.5,3,tertiary_amine,"1,4,7-Tris(2-mercaptoethyl)-1,4,7-triazacyclononane",[H₅L]/[H₄L][H],0.1,25.0,3,tertiary_amine,3(tertiary_amine),Unknown,tertiary_amine(Unknown)
Cc1ccc(O)c(CN2CCN(CCN(CC2)Cc3nc(C)ccc3O)Cc4nc(C)ccc4O)n1,12.1,54,ring_nitrogen,"1,4,7-Tris(3-hydroxy-6-methyl-2-pyridylmethyl)-1,4,7-triazacyclononane",[HL]/[L][H],0.1,25.0,54,ring_nitrogen,54(ring_nitrogen),Unknown,ring_nitrogen(Unknown)
Cc1ccc(O)c(CN2CCN(CCN(CC2)Cc3nc(C)ccc3O)Cc4nc(C)ccc4O)n1,10.86,54,ring_nitrogen,"1,4,7-Tris(3-hydroxy-6-methyl-2-pyridylmethyl)-1,4,7-triazacyclononane",[H₂L]/[HL][H],0.1,25.0,54,ring_nitrogen,54(ring_nitrogen),Unknown,ring_nitrogen(Unknown)
Cc1ccc(O)c(CN2CCN(CCN(CC2)Cc3nc(C)ccc3O)Cc4nc(C)ccc4O)n1,9.73,54,ring_nitrogen,"1,4,7-Tris(3-hydroxy-6-methyl-2-pyridylmethyl)-1,4,7-triazacyclononane",[H₃L]/[H₂L][H],0.1,25.0,54,ring_nitrogen,54(ring_nitrogen),Unknown,ring_nitrogen(Unknown)
Cc1ccc(O)c(CN2CCN(CCN(CC2)Cc3nc(C)ccc3O)Cc4nc(C)ccc4O)n1,7.0,54,ring_nitrogen,"1,4,7-Tris(3-hydroxy-6-methyl-2-pyridylmethyl)-1,4,7-triazacyclononane",[H₄L]/[H₃L][H],0.1,25.0,54,ring_nitrogen,54(ring_nitrogen),Unknown,ring_nitrogen(Unknown)
Cc1ccc(O)c(CN2CCN(CCN(CC2)Cc3nc(C)ccc3O)Cc4nc(C)ccc4O)n1,5.35,54,ring_nitrogen,"1,4,7-Tris(3-hydroxy-6-methyl-2-pyridylmethyl)-1,4,7-triazacyclononane",[H₅L]/[H₄L][H],0.1,25.0,54,ring_nitrogen,54(ring_nitrogen),Unknown,ring_nitrogen(Unknown)
Cc1ccc(O)c(CN2CCN(CCN(CC2)Cc3nc(C)ccc3O)Cc4nc(C)ccc4O)n1,4.28,54,ring_nitrogen,"1,4,7-Tris(3-hydroxy-6-methyl-2-pyridylmethyl)-1,4,7-triazacyclononane",[H₆L]/[H₅L][H],0.1,25.0,54,ring_nitrogen,54(ring_nitrogen),Unknown,ring_nitrogen(Unknown)
C1CNCCCNC(CCNC1)c2c[nH]cn2,13.0,2:6:10:14,amine_secondary:amine_secondary:amine_secondary:amine_secondary,"2-(4-Imidazolyl)-1,5,9-triazacyclododecane",[HL]/[L][H],0.1,25.0,2:6:10:14,amine_secondary:amine_secondary:amine_secondary:amine_secondary,2(amine_secondary) > 6(amine_secondary) > 10(amine_secondary) > 14(amine_secondary),amine_secondary,amine_secondary(9.5~11.5); amine_secondary(9.5~11.5); amine_secondary(9.5~11.5); amine_secondary(9.5~11.5)
C1CNCCCNC(CCNC1)c2c[nH]cn2,7.54,2:6:10:14,amine_secondary:amine_secondary:amine_secondary:amine_secondary,"2-(4-Imidazolyl)-1,5,9-triazacyclododecane",[H₂L]/[HL][H],0.1,25.0,2:6:10:14,amine_secondary:amine_secondary:amine_secondary:amine_secondary,2(amine_secondary) > 6(amine_secondary) > 10(amine_secondary) > 14(amine_secondary),amine_secondary,amine_secondary(9.5~11.5); amine_secondary(9.5~11.5); amine_secondary(9.5~11.5); amine_secondary(9.5~11.5)
C1CNCCCNC(CCNC1)c2c[nH]cn2,5.2,2:6:10:14,amine_secondary:amine_secondary:amine_secondary:amine_secondary,"2-(4-Imidazolyl)-1,5,9-triazacyclododecane",[H₃L]/[H₂L][H],0.1,25.0,2:6:10:14,amine_secondary:amine_secondary:amine_secondary:amine_secondary,2(amine_secondary) > 6(amine_secondary) > 10(amine_secondary) > 14(amine_secondary),amine_secondary,amine_secondary(9.5~11.5); amine_secondary(9.5~11.5); amine_secondary(9.5~11.5); amine_secondary(9.5~11.5)
C1CNCCCNC(CCNC1)c2c[nH]cn2,2.0,2:6:10:14,amine_secondary:amine_secondary:amine_secondary:amine_secondary,"2-(4-Imidazolyl)-1,5,9-triazacyclododecane",[H₄L]/[H₃L][H],0.1,25.0,2:6:10:14,amine_secondary:amine_secondary:amine_secondary:amine_secondary,2(amine_secondary) > 6(amine_secondary) > 10(amine_secondary) > 14(amine_secondary),amine_secondary,amine_secondary(9.5~11.5); amine_secondary(9.5~11.5); amine_secondary(9.5~11.5); amine_secondary(9.5~11.5)
C1N2CN3CN1CN(C2)C3,4.89,11,tertiary_amine,"1,3,5,7-Tetraazatricyclo[3.3.1.1(3,7)]decane (Hexamethylenetetramine)",[HL]/[L][H],0.1,25.0,11,tertiary_amine,11(tertiary_amine),Unknown,tertiary_amine(Unknown)
C1N2CN3CN1CN(C2)C3,5.05,11,tertiary_amine,"1,3,5,7-Tetraazatricyclo[3.3.1.1(3,7)]decane (Hexamethylenetetramine)",[HL]/[L][H],0.5,25.0,11,tertiary_amine,11(tertiary_amine),Unknown,tertiary_amine(Unknown)
CN1CCNCCN(C)CCNCC1,10.76,4:11,amine_secondary:amine_secondary,"1,7-Dimethyl-1,4,7,10-tetraazacyclododecane",[HL]/[L][H],0.5,25.0,4:11,amine_secondary:amine_secondary,4(amine_secondary) > 11(amine_secondary),amine_secondary,amine_secondary(9.5~11.5); amine_secondary(9.5~11.5)
CN1CCNCCN(C)CCNCC1,9.41,4:11,amine_secondary:amine_secondary,"1,7-Dimethyl-1,4,7,10-tetraazacyclododecane",[H₂L]/[HL][H],0.5,25.0,4:11,amine_secondary:amine_secondary,4(amine_secondary) > 11(amine_secondary),amine_secondary,amine_secondary(9.5~11.5); amine_secondary(9.5~11.5)
CN1CCN(C)CCN(C)CCN(C)CC1,10.07,1,tertiary_amine,"1,4,7,10-Tetramethyl-1,4,7,10-tetraazacyclododecane",[HL]/[L][H],0.1,25.0,1,tertiary_amine,1(tertiary_amine),Unknown,tertiary_amine(Unknown)
CN1CCN(C)CCN(C)CCN(C)CC1,8.95,1,tertiary_amine,"1,4,7,10-Tetramethyl-1,4,7,10-tetraazacyclododecane",[H₂L]/[HL][H],0.1,25.0,1,tertiary_amine,1(tertiary_amine),Unknown,tertiary_amine(Unknown)
CC1CC(C)NCCNCCNCCN1,11.4,5:8,amine_secondary:amine_secondary,"11,13-Dimethyl-1,4,7,10-tetraazacyclotridecane",[HL]/[L][H],0.5,25.0,5:8,amine_secondary:amine_secondary,5(amine_secondary) > 8(amine_secondary),amine_secondary,amine_secondary(9.5~11.5); amine_secondary(9.5~11.5)
CC1CC(C)NCCNCCNCCN1,9.76,5:8,amine_secondary:amine_secondary,"11,13-Dimethyl-1,4,7,10-tetraazacyclotridecane",[H₂L]/[HL][H],0.5,25.0,5:8,amine_secondary:amine_secondary,5(amine_secondary) > 8(amine_secondary),amine_secondary,amine_secondary(9.5~11.5); amine_secondary(9.5~11.5)
CC1(C)CNCCNCCNCCNC1,11.4,4:7,amine_secondary:amine_secondary,"12,12-Dimethyl-1,4,7,10-tetraazacyclotridecane",[HL]/[L][H],0.5,25.0,4:7,amine_secondary:amine_secondary,4(amine_secondary) > 7(amine_secondary),amine_secondary,amine_secondary(9.5~11.5); amine_secondary(9.5~11.5)
CC1(C)CNCCNCCNCCNC1,9.95,4:7,amine_secondary:amine_secondary,"12,12-Dimethyl-1,4,7,10-tetraazacyclotridecane",[H₂L]/[HL][H],0.5,25.0,4:7,amine_secondary:amine_secondary,4(amine_secondary) > 7(amine_secondary),amine_secondary,amine_secondary(9.5~11.5); amine_secondary(9.5~11.5)
CC1CC(C)(C)NCCNCCNCCN1,11.3,6:9,amine_secondary:amine_secondary,"11,11,13-Trimethyl-1,4,7,10-tetraazacyclotridecane",[HL]/[L][H],0.5,25.0,6:9,amine_secondary:amine_secondary,6(amine_secondary) > 9(amine_secondary),amine_secondary,amine_secondary(9.5~11.5); amine_secondary(9.5~11.5)
CC1CC(C)(C)NCCNCCNCCN1,9.46,6:9,amine_secondary:amine_secondary,"11,11,13-Trimethyl-1,4,7,10-tetraazacyclotridecane",[H₂L]/[HL][H],0.5,25.0,6:9,amine_secondary:amine_secondary,6(amine_secondary) > 9(amine_secondary),amine_secondary,amine_secondary(9.5~11.5); amine_secondary(9.5~11.5)
CN1CCN(C)CCN(C)CC(C)(C)CN(C)CC1,11.4,1,tertiary_amine,"1,4,7,10,12,12-Hexamethyl-1,4,7,10-tetraazacyclotridecane",[HL]/[L][H],0.5,25.0,1,tertiary_amine,1(tertiary_amine),Unknown,tertiary_amine(Unknown)
CN1CCN(C)CCN(C)CC(C)(C)CN(C)CC1,7.95,1,tertiary_amine,"1,4,7,10,12,12-Hexamethyl-1,4,7,10-tetraazacyclotridecane",[H₂L]/[HL][H],0.5,25.0,1,tertiary_amine,1(tertiary_amine),Unknown,tertiary_amine(Unknown)
C1CCNCCNCCNCCNC1,10.92,3:6:9:12,amine_secondary:amine_secondary:amine_secondary:amine_secondary,"1,4,7,10-Tetraazacyclotetradecane",[HL]/[L][H],0.1,25.0,3:6:9:12,amine_secondary:amine_secondary:amine_secondary:amine_secondary,3(amine_secondary) > 6(amine_secondary) > 9(amine_secondary) > 12(amine_secondary),amine_secondary,amine_secondary(9.5~11.5); amine_secondary(9.5~11.5); amine_secondary(9.5~11.5); amine_secondary(9.5~11.5)
C1CCNCCNCCNCCNC1,10.45,3:6:9:12,amine_secondary:amine_secondary:amine_secondary:amine_secondary,"1,4,7,10-Tetraazacyclotetradecane",[HL]/[L][H],0.1,35.0,3:6:9:12,amine_secondary:amine_secondary:amine_secondary:amine_secondary,3(amine_secondary) > 6(amine_secondary) > 9(amine_secondary) > 12(amine_secondary),amine_secondary,amine_secondary(9.5~11.5); amine_secondary(9.5~11.5); amine_secondary(9.5~11.5); amine_secondary(9.5~11.5)
C1CCNCCNCCNCCNC1,10.98,3:6:9:12,amine_secondary:amine_secondary:amine_secondary:amine_secondary,"1,4,7,10-Tetraazacyclotetradecane",[HL]/[L][H],0.5,25.0,3:6:9:12,amine_secondary:amine_secondary:amine_secondary:amine_secondary,3(amine_secondary) > 6(amine_secondary) > 9(amine_secondary) > 12(amine_secondary),amine_secondary,amine_secondary(9.5~11.5); amine_secondary(9.5~11.5); amine_secondary(9.5~11.5); amine_secondary(9.5~11.5)