SMILES,pKa,Dissociable_Atoms,Functional_Group,Name,Equilibrium,Ionic,Temperature,Dissociable_Atoms_Ordered,Functional_Group_Ordered,Dissociation_Order,Dissociating_Group,Functional_Group_pKa_Ranges
N[C@@H](CCC(=O)N[C@@H](CS)C(=O)NCC(O)=O)C(O)=O,8.58,15:18:0:6,carboxylic_acid:carboxylic_acid:amine_primary:amine_secondary,L-5-Glutamyl-L-cysteinylglycine (Glutathione),[H₂L]/[HL][H],0.5,25.0,15:18:0:6,carboxylic_acid:carboxylic_acid:amine_primary:amine_secondary,15(carboxylic_acid) > 18(carboxylic_acid) > 0(amine_primary) > 6(amine_secondary),amine_primary,carboxylic_acid(1.5~5.0); carboxylic_acid(1.5~5.0); amine_primary(9.0~11.0); amine_secondary(9.5~11.5)
N[C@@H](CCC(=O)N[C@@H](CS)C(=O)NCC(O)=O)C(O)=O,9.16,15:18:0:6,carboxylic_acid:carboxylic_acid:amine_primary:amine_secondary,L-5-Glutamyl-L-cysteinylglycine (Glutathione),[H₂L]/[HL][H],3.0,25.0,15:18:0:6,carboxylic_acid:carboxylic_acid:amine_primary:amine_secondary,15(carboxylic_acid) > 18(carboxylic_acid) > 0(amine_primary) > 6(amine_secondary),amine_primary,carboxylic_acid(1.5~5.0); carboxylic_acid(1.5~5.0); amine_primary(9.0~11.0); amine_secondary(9.5~11.5)
N[C@@H](CCC(=O)N[C@@H](CS)C(=O)NCC(O)=O)C(O)=O,3.49,15:18:0:6,carboxylic_acid:carboxylic_acid:amine_primary:amine_secondary,L-5-Glutamyl-L-cysteinylglycine (Glutathione),[H₃L]/[H₂L][H],0.1,25.0,15:18:0:6,carboxylic_acid:carboxylic_acid:amine_primary:amine_secondary,15(carboxylic_acid) > 18(carboxylic_acid) > 0(amine_primary) > 6(amine_secondary),carboxylic_acid,carboxylic_acid(1.5~5.0); carboxylic_acid(1.5~5.0); amine_primary(9.0~11.0); amine_secondary(9.5~11.5)
N[C@@H](CCC(=O)N[C@@H](CS)C(=O)NCC(O)=O)C(O)=O,3.46,15:18:0:6,carboxylic_acid:carboxylic_acid:amine_primary:amine_secondary,L-5-Glutamyl-L-cysteinylglycine (Glutathione),[H₃L]/[H₂L][H],0.15,37.0,15:18:0:6,carboxylic_acid:carboxylic_acid:amine_primary:amine_secondary,15(carboxylic_acid) > 18(carboxylic_acid) > 0(amine_primary) > 6(amine_secondary),carboxylic_acid,carboxylic_acid(1.5~5.0); carboxylic_acid(1.5~5.0); amine_primary(9.0~11.0); amine_secondary(9.5~11.5)
N[C@@H](CCC(=O)N[C@@H](CS)C(=O)NCC(O)=O)C(O)=O,3.48,15:18:0:6,carboxylic_acid:carboxylic_acid:amine_primary:amine_secondary,L-5-Glutamyl-L-cysteinylglycine (Glutathione),[H₃L]/[H₂L][H],0.5,25.0,15:18:0:6,carboxylic_acid:carboxylic_acid:amine_primary:amine_secondary,15(carboxylic_acid) > 18(carboxylic_acid) > 0(amine_primary) > 6(amine_secondary),carboxylic_acid,carboxylic_acid(1.5~5.0); carboxylic_acid(1.5~5.0); amine_primary(9.0~11.0); amine_secondary(9.5~11.5)
N[C@@H](CCC(=O)N[C@@H](CS)C(=O)NCC(O)=O)C(O)=O,3.5,15:18:0:6,carboxylic_acid:carboxylic_acid:amine_primary:amine_secondary,L-5-Glutamyl-L-cysteinylglycine (Glutathione),[H₃L]/[H₂L][H],1.0,25.0,15:18:0:6,carboxylic_acid:carboxylic_acid:amine_primary:amine_secondary,15(carboxylic_acid) > 18(carboxylic_acid) > 0(amine_primary) > 6(amine_secondary),carboxylic_acid,carboxylic_acid(1.5~5.0); carboxylic_acid(1.5~5.0); amine_primary(9.0~11.0); amine_secondary(9.5~11.5)
N[C@@H](CCC(=O)N[C@@H](CS)C(=O)NCC(O)=O)C(O)=O,3.82,15:18:0:6,carboxylic_acid:carboxylic_acid:amine_primary:amine_secondary,L-5-Glutamyl-L-cysteinylglycine (Glutathione),[H₃L]/[H₂L][H],3.0,25.0,15:18:0:6,carboxylic_acid:carboxylic_acid:amine_primary:amine_secondary,15(carboxylic_acid) > 18(carboxylic_acid) > 0(amine_primary) > 6(amine_secondary),carboxylic_acid,carboxylic_acid(1.5~5.0); carboxylic_acid(1.5~5.0); amine_primary(9.0~11.0); amine_secondary(9.5~11.5)
N[C@@H](CCC(=O)N[C@@H](CS)C(=O)NCC(O)=O)C(O)=O,2.08,15:18:0:6,carboxylic_acid:carboxylic_acid:amine_primary:amine_secondary,L-5-Glutamyl-L-cysteinylglycine (Glutathione),[H₄L]/[H₃L][H],0.1,25.0,15:18:0:6,carboxylic_acid:carboxylic_acid:amine_primary:amine_secondary,15(carboxylic_acid) > 18(carboxylic_acid) > 0(amine_primary) > 6(amine_secondary),carboxylic_acid,carboxylic_acid(1.5~5.0); carboxylic_acid(1.5~5.0); amine_primary(9.0~11.0); amine_secondary(9.5~11.5)
N[C@@H](CCC(=O)N[C@@H](CS)C(=O)NCC(O)=O)C(O)=O,2.06,15:18:0:6,carboxylic_acid:carboxylic_acid:amine_primary:amine_secondary,L-5-Glutamyl-L-cysteinylglycine (Glutathione),[H₄L]/[H₃L][H],0.15,37.0,15:18:0:6,carboxylic_acid:carboxylic_acid:amine_primary:amine_secondary,15(carboxylic_acid) > 18(carboxylic_acid) > 0(amine_primary) > 6(amine_secondary),carboxylic_acid,carboxylic_acid(1.5~5.0); carboxylic_acid(1.5~5.0); amine_primary(9.0~11.0); amine_secondary(9.5~11.5)
N[C@@H](CCC(=O)N[C@@H](CS)C(=O)NCC(O)=O)C(O)=O,2.1,15:18:0:6,carboxylic_acid:carboxylic_acid:amine_primary:amine_secondary,L-5-Glutamyl-L-cysteinylglycine (Glutathione),[H₄L]/[H₃L][H],0.5,25.0,15:18:0:6,carboxylic_acid:carboxylic_acid:amine_primary:amine_secondary,15(carboxylic_acid) > 18(carboxylic_acid) > 0(amine_primary) > 6(amine_secondary),carboxylic_acid,carboxylic_acid(1.5~5.0); carboxylic_acid(1.5~5.0); amine_primary(9.0~11.0); amine_secondary(9.5~11.5)
N[C@@H](CCC(=O)N[C@@H](CS)C(=O)NCC(O)=O)C(O)=O,2.28,15:18:0:6,carboxylic_acid:carboxylic_acid:amine_primary:amine_secondary,L-5-Glutamyl-L-cysteinylglycine (Glutathione),[H₄L]/[H₃L][H],1.0,25.0,15:18:0:6,carboxylic_acid:carboxylic_acid:amine_primary:amine_secondary,15(carboxylic_acid) > 18(carboxylic_acid) > 0(amine_primary) > 6(amine_secondary),carboxylic_acid,carboxylic_acid(1.5~5.0); carboxylic_acid(1.5~5.0); amine_primary(9.0~11.0); amine_secondary(9.5~11.5)
N[C@@H](CCC(=O)N[C@@H](CS)C(=O)NCC(O)=O)C(O)=O,2.59,15:18:0:6,carboxylic_acid:carboxylic_acid:amine_primary:amine_secondary,L-5-Glutamyl-L-cysteinylglycine (Glutathione),[H₄L]/[H₃L][H],3.0,25.0,15:18:0:6,carboxylic_acid:carboxylic_acid:amine_primary:amine_secondary,15(carboxylic_acid) > 18(carboxylic_acid) > 0(amine_primary) > 6(amine_secondary),carboxylic_acid,carboxylic_acid(1.5~5.0); carboxylic_acid(1.5~5.0); amine_primary(9.0~11.0); amine_secondary(9.5~11.5)
CSC[C@H](NC(=O)CC[C@H](N)C(O)=O)C(=O)NCC(O)=O,9.08,12,carboxylic_acid,L-5-Glutamyl-(S-methyl-L-cysteinyl)glycine (S-methylglutathione),[HL]/[L][H],0.1,25.0,12,carboxylic_acid,12(carboxylic_acid),carboxylic_acid,carboxylic_acid(1.5~5.0)
OC(=O)[C@H](Cc1c[nH]cn1)NC(=O)CNC(=O)CS,8.65,0:7:10,carboxylic_acid:amine_secondary:amine_secondary,N-(Mercaptoacetyl)glycyl-L-histidine,[HL]/[L][H],0.1,20.0,0:7:10,carboxylic_acid:amine_secondary:amine_secondary,0(carboxylic_acid) > 7(amine_secondary) > 10(amine_secondary),amine_secondary,carboxylic_acid(1.5~5.0); amine_secondary(9.5~11.5); amine_secondary(9.5~11.5)
OC(=O)[C@H](Cc1c[nH]cn1)NC(=O)CNC(=O)CS,7.1,0:7:10,carboxylic_acid:amine_secondary:amine_secondary,N-(Mercaptoacetyl)glycyl-L-histidine,[H₂L]/[HL][H],0.1,20.0,0:7:10,carboxylic_acid:amine_secondary:amine_secondary,0(carboxylic_acid) > 7(amine_secondary) > 10(amine_secondary),amine_secondary,carboxylic_acid(1.5~5.0); amine_secondary(9.5~11.5); amine_secondary(9.5~11.5)
OC(=O)[C@H](Cc1c[nH]cn1)NC(=O)CNC(=O)CS,3.47,0:7:10,carboxylic_acid:amine_secondary:amine_secondary,N-(Mercaptoacetyl)glycyl-L-histidine,[H₃L]/[H₂L][H],0.1,20.0,0:7:10,carboxylic_acid:amine_secondary:amine_secondary,0(carboxylic_acid) > 7(amine_secondary) > 10(amine_secondary),carboxylic_acid,carboxylic_acid(1.5~5.0); amine_secondary(9.5~11.5); amine_secondary(9.5~11.5)
NCC(=O)NCC(=O)NCC(=O)NCC(O)=O,7.88,15:0,carboxylic_acid:amine_primary,Glycylglycylglycylglycine (Tetraglycine),[HL]/[L][H],0.1,25.0,15:0,carboxylic_acid:amine_primary,15(carboxylic_acid) > 0(amine_primary),amine_primary,carboxylic_acid(1.5~5.0); amine_primary(9.0~11.0)
NCC(=O)NCC(=O)NCC(=O)NCC(O)=O,7.88,15:0,carboxylic_acid:amine_primary,Glycylglycylglycylglycine (Tetraglycine),[HL]/[L][H],1.0,25.0,15:0,carboxylic_acid:amine_primary,15(carboxylic_acid) > 0(amine_primary),amine_primary,carboxylic_acid(1.5~5.0); amine_primary(9.0~11.0)
NCC(=O)NCC(=O)NCC(=O)NCC(O)=O,3.2,15:0,carboxylic_acid:amine_primary,Glycylglycylglycylglycine (Tetraglycine),[H₂L]/[HL][H],0.1,25.0,15:0,carboxylic_acid:amine_primary,15(carboxylic_acid) > 0(amine_primary),carboxylic_acid,carboxylic_acid(1.5~5.0); amine_primary(9.0~11.0)
NCC(=O)NCC(=O)NCC(=O)NCC(O)=O,3.21,15:0,carboxylic_acid:amine_primary,Glycylglycylglycylglycine (Tetraglycine),[H₂L]/[HL][H],1.0,25.0,15:0,carboxylic_acid:amine_primary,15(carboxylic_acid) > 0(amine_primary),carboxylic_acid,carboxylic_acid(1.5~5.0); amine_primary(9.0~11.0)
C[C@H](N)C(=O)NCC(=O)NCC(=O)NCC(O)=O,7.85,16:2,carboxylic_acid:amine_primary,L-Alanylglycylglycylglycine,[HL]/[L][H],0.1,25.0,16:2,carboxylic_acid:amine_primary,16(carboxylic_acid) > 2(amine_primary),amine_primary,carboxylic_acid(1.5~5.0); amine_primary(9.0~11.0)
C[C@H](N)C(=O)NCC(=O)NCC(=O)NCC(O)=O,3.18,16:2,carboxylic_acid:amine_primary,L-Alanylglycylglycylglycine,[H₂L]/[HL][H],0.1,25.0,16:2,carboxylic_acid:amine_primary,16(carboxylic_acid) > 2(amine_primary),carboxylic_acid,carboxylic_acid(1.5~5.0); amine_primary(9.0~11.0)
C[C@H](N)C(=O)N[C@@H](C)C(=O)N[C@@H](C)C(=O)N[C@@H](C)C(O)=O,7.83,19:2,carboxylic_acid:amine_primary,L-Alanyl-L-alanyl-L-alanyl-L-alanine,[HL]/[L][H],0.1,25.0,19:2,carboxylic_acid:amine_primary,19(carboxylic_acid) > 2(amine_primary),amine_primary,carboxylic_acid(1.5~5.0); amine_primary(9.0~11.0)
C[C@H](N)C(=O)N[C@@H](C)C(=O)N[C@@H](C)C(=O)N[C@@H](C)C(O)=O,3.31,19:2,carboxylic_acid:amine_primary,L-Alanyl-L-alanyl-L-alanyl-L-alanine,[H₂L]/[HL][H],0.1,25.0,19:2,carboxylic_acid:amine_primary,19(carboxylic_acid) > 2(amine_primary),carboxylic_acid,carboxylic_acid(1.5~5.0); amine_primary(9.0~11.0)
C[C@H](N)C(=O)N[C@@H](C)C(=O)N[C@H](C)C(=O)N[C@@H](C)C(O)=O,7.82,19:2,carboxylic_acid:amine_primary,L-Alanyl-L-alanyl-D-alanyl-L-alanine,[HL]/[L][H],0.1,25.0,19:2,carboxylic_acid:amine_primary,19(carboxylic_acid) > 2(amine_primary),amine_primary,carboxylic_acid(1.5~5.0); amine_primary(9.0~11.0)
C[C@H](N)C(=O)N[C@@H](C)C(=O)N[C@H](C)C(=O)N[C@@H](C)C(O)=O,3.13,19:2,carboxylic_acid:amine_primary,L-Alanyl-L-alanyl-D-alanyl-L-alanine,[H₂L]/[HL][H],0.1,25.0,19:2,carboxylic_acid:amine_primary,19(carboxylic_acid) > 2(amine_primary),carboxylic_acid,carboxylic_acid(1.5~5.0); amine_primary(9.0~11.0)
C[C@H](N)C(=O)N[C@H](C)C(=O)N[C@@H](C)C(=O)N[C@@H](C)C(O)=O,7.88,19:2,carboxylic_acid:amine_primary,L-Alanyl-D-alanyl-L-alanyl-L-alanine,[HL]/[L][H],0.1,25.0,19:2,carboxylic_acid:amine_primary,19(carboxylic_acid) > 2(amine_primary),amine_primary,carboxylic_acid(1.5~5.0); amine_primary(9.0~11.0)
C[C@H](N)C(=O)N[C@H](C)C(=O)N[C@@H](C)C(=O)N[C@@H](C)C(O)=O,3.11,19:2,carboxylic_acid:amine_primary,L-Alanyl-D-alanyl-L-alanyl-L-alanine,[H₂L]/[HL][H],0.1,25.0,19:2,carboxylic_acid:amine_primary,19(carboxylic_acid) > 2(amine_primary),carboxylic_acid,carboxylic_acid(1.5~5.0); amine_primary(9.0~11.0)
C[C@@H](N)C(=O)N[C@@H](C)C(=O)N[C@@H](C)C(=O)N[C@@H](C)C(O)=O,7.83,19:2,carboxylic_acid:amine_primary,D-Alanyl-L-alanyl-L-alanyl-L-alanine,[HL]/[L][H],0.1,25.0,19:2,carboxylic_acid:amine_primary,19(carboxylic_acid) > 2(amine_primary),amine_primary,carboxylic_acid(1.5~5.0); amine_primary(9.0~11.0)
C[C@@H](N)C(=O)N[C@@H](C)C(=O)N[C@@H](C)C(=O)N[C@@H](C)C(O)=O,3.31,19:2,carboxylic_acid:amine_primary,D-Alanyl-L-alanyl-L-alanyl-L-alanine,[H₂L]/[HL][H],0.1,25.0,19:2,carboxylic_acid:amine_primary,19(carboxylic_acid) > 2(amine_primary),carboxylic_acid,carboxylic_acid(1.5~5.0); amine_primary(9.0~11.0)
CC(C)(NC(=O)CNC(=O)CN)C(=O)NCC(O)=O,7.98,17:11,carboxylic_acid:amine_primary,Glycylglycyl-2-methylalanylglycine,[HL]/[L][H],0.1,25.0,17:11,carboxylic_acid:amine_primary,17(carboxylic_acid) > 11(amine_primary),amine_primary,carboxylic_acid(1.5~5.0); amine_primary(9.0~11.0)
CC(C)(NC(=O)CNC(=O)CN)C(=O)NCC(O)=O,3.55,17:11,carboxylic_acid:amine_primary,Glycylglycyl-2-methylalanylglycine,[H₂L]/[HL][H],0.1,25.0,17:11,carboxylic_acid:amine_primary,17(carboxylic_acid) > 11(amine_primary),carboxylic_acid,carboxylic_acid(1.5~5.0); amine_primary(9.0~11.0)
CC(C)(N)C(=O)NC(C)(C)C(=O)NC(C)(C)C(=O)NCC(O)=O,8.33,21:3,carboxylic_acid:amine_primary,2-Methylalanyl-2-methylalanyl-2-methylalanylglycine,[HL]/[L][H],0.1,25.0,21:3,carboxylic_acid:amine_primary,21(carboxylic_acid) > 3(amine_primary),amine_primary,carboxylic_acid(1.5~5.0); amine_primary(9.0~11.0)
CC(C)(N)C(=O)NC(C)(C)C(=O)NC(C)(C)C(=O)NCC(O)=O,3.46,21:3,carboxylic_acid:amine_primary,2-Methylalanyl-2-methylalanyl-2-methylalanylglycine,[H₂L]/[HL][H],0.1,25.0,21:3,carboxylic_acid:amine_primary,21(carboxylic_acid) > 3(amine_primary),carboxylic_acid,carboxylic_acid(1.5~5.0); amine_primary(9.0~11.0)
CC(C)(N)C(=O)NC(C)(C)C(=O)NC(C)(C)C(=O)NC(C)(C)C(O)=O,7.78,23:3,carboxylic_acid:amine_primary,2-Methylalanyl-2-methylalanyl-2-methylalanyl-2-methylalanine,[HL]/[L][H],0.1,25.0,23:3,carboxylic_acid:amine_primary,23(carboxylic_acid) > 3(amine_primary),amine_primary,carboxylic_acid(1.5~5.0); amine_primary(9.0~11.0)
CC(C)(N)C(=O)NC(C)(C)C(=O)NC(C)(C)C(=O)NC(C)(C)C(O)=O,3.8,23:3,carboxylic_acid:amine_primary,2-Methylalanyl-2-methylalanyl-2-methylalanyl-2-methylalanine,[H₂L]/[HL][H],0.1,25.0,23:3,carboxylic_acid:amine_primary,23(carboxylic_acid) > 3(amine_primary),carboxylic_acid,carboxylic_acid(1.5~5.0); amine_primary(9.0~11.0)
CN(CC(O)=O)C(=O)CNC(=O)CNC(=O)CN,7.92,4:17,carboxylic_acid:amine_primary,Glycylglycylglycylsarcosine,[HL]/[L][H],0.1,25.0,4:17,carboxylic_acid:amine_primary,4(carboxylic_acid) > 17(amine_primary),amine_primary,carboxylic_acid(1.5~5.0); amine_primary(9.0~11.0)
CN(CC(O)=O)C(=O)CNC(=O)CNC(=O)CN,3.04,4:17,carboxylic_acid:amine_primary,Glycylglycylglycylsarcosine,[H₂L]/[HL][H],0.1,25.0,4:17,carboxylic_acid:amine_primary,4(carboxylic_acid) > 17(amine_primary),carboxylic_acid,carboxylic_acid(1.5~5.0); amine_primary(9.0~11.0)
CN(CC(=O)NCC(O)=O)C(=O)CNC(=O)CN,7.97,8:17,carboxylic_acid:amine_primary,Glycylglycylsarcosylglycine,[HL]/[L][H],0.1,25.0,8:17,carboxylic_acid:amine_primary,8(carboxylic_acid) > 17(amine_primary),amine_primary,carboxylic_acid(1.5~5.0); amine_primary(9.0~11.0)
CN(CC(=O)NCC(O)=O)C(=O)CNC(=O)CN,3.34,8:17,carboxylic_acid:amine_primary,Glycylglycylsarcosylglycine,[H₂L]/[HL][H],0.1,25.0,8:17,carboxylic_acid:amine_primary,8(carboxylic_acid) > 17(amine_primary),carboxylic_acid,carboxylic_acid(1.5~5.0); amine_primary(9.0~11.0)
CN(CC(=O)NCC(=O)NCC(O)=O)C(=O)CN,8.28,12:17,carboxylic_acid:amine_primary,Glycylsarcosylglycylglycine,[HL]/[L][H],0.1,25.0,12:17,carboxylic_acid:amine_primary,12(carboxylic_acid) > 17(amine_primary),amine_primary,carboxylic_acid(1.5~5.0); amine_primary(9.0~11.0)
CN(CC(=O)NCC(=O)NCC(O)=O)C(=O)CN,3.35,12:17,carboxylic_acid:amine_primary,Glycylsarcosylglycylglycine,[H₂L]/[HL][H],0.1,25.0,12:17,carboxylic_acid:amine_primary,12(carboxylic_acid) > 17(amine_primary),carboxylic_acid,carboxylic_acid(1.5~5.0); amine_primary(9.0~11.0)
CNCC(=O)NCC(=O)NCC(=O)NCC(O)=O,8.39,16:1,carboxylic_acid:amine_secondary,Sarcosylglycylglycylglycine,[HL]/[L][H],0.1,25.0,16:1,carboxylic_acid:amine_secondary,16(carboxylic_acid) > 1(amine_secondary),amine_secondary,carboxylic_acid(1.5~5.0); amine_secondary(9.5~11.5)
CNCC(=O)NCC(=O)NCC(=O)NCC(O)=O,3.34,16:1,carboxylic_acid:amine_secondary,Sarcosylglycylglycylglycine,[H₂L]/[HL][H],0.1,25.0,16:1,carboxylic_acid:amine_secondary,16(carboxylic_acid) > 1(amine_secondary),carboxylic_acid,carboxylic_acid(1.5~5.0); amine_secondary(9.5~11.5)
NCC(=O)NCC(=O)NCC(=O)N1CCC[C@H]1C(O)=O,8.04,18:0,carboxylic_acid:amine_primary,Glycylglycylglycyl-L-proline,[HL]/[L][H],0.1,25.0,18:0,carboxylic_acid:amine_primary,18(carboxylic_acid) > 0(amine_primary),amine_primary,carboxylic_acid(1.5~5.0); amine_primary(9.0~11.0)
NCC(=O)NCC(=O)NCC(=O)N1CCC[C@H]1C(O)=O,2.91,18:0,carboxylic_acid:amine_primary,Glycylglycylglycyl-L-proline,[H₂L]/[HL][H],0.1,25.0,18:0,carboxylic_acid:amine_primary,18(carboxylic_acid) > 0(amine_primary),carboxylic_acid,carboxylic_acid(1.5~5.0); amine_primary(9.0~11.0)
NCC(=O)NCC(=O)N1CCC[C@H]1C(=O)NCC(O)=O,8.06,18:0,carboxylic_acid:amine_primary,Glycylglycyl-L-prolylglycine,[HL]/[L][H],0.1,25.0,18:0,carboxylic_acid:amine_primary,18(carboxylic_acid) > 0(amine_primary),amine_primary,carboxylic_acid(1.5~5.0); amine_primary(9.0~11.0)
NCC(=O)NCC(=O)N1CCC[C@H]1C(=O)NCC(O)=O,3.17,18:0,carboxylic_acid:amine_primary,Glycylglycyl-L-prolylglycine,[H₂L]/[HL][H],0.1,25.0,18:0,carboxylic_acid:amine_primary,18(carboxylic_acid) > 0(amine_primary),carboxylic_acid,carboxylic_acid(1.5~5.0); amine_primary(9.0~11.0)
NCC(=O)N1CCC[C@H]1C(=O)NCC(=O)NCC(O)=O,8.25,18:0,carboxylic_acid:amine_primary,Glycyl-L-prolylglycylglycine,[HL]/[L][H],0.1,25.0,18:0,carboxylic_acid:amine_primary,18(carboxylic_acid) > 0(amine_primary),amine_primary,carboxylic_acid(1.5~5.0); amine_primary(9.0~11.0)
NCC(=O)N1CCC[C@H]1C(=O)NCC(=O)NCC(O)=O,3.11,18:0,carboxylic_acid:amine_primary,Glycyl-L-prolylglycylglycine,[H₂L]/[HL][H],0.1,25.0,18:0,carboxylic_acid:amine_primary,18(carboxylic_acid) > 0(amine_primary),carboxylic_acid,carboxylic_acid(1.5~5.0); amine_primary(9.0~11.0)
OC(=O)CNC(=O)CNC(=O)CNC(=O)[C@@H]1CCCN1,8.67,0:4,carboxylic_acid:amine_secondary,L-Prolylglycylglycylglycine,[HL]/[L][H],0.1,25.0,0:4,carboxylic_acid:amine_secondary,0(carboxylic_acid) > 4(amine_secondary),amine_secondary,carboxylic_acid(1.5~5.0); amine_secondary(9.5~11.5)
OC(=O)CNC(=O)CNC(=O)CNC(=O)[C@@H]1CCCN1,3.27,0:4,carboxylic_acid:amine_secondary,L-Prolylglycylglycylglycine,[H₂L]/[HL][H],0.1,25.0,0:4,carboxylic_acid:amine_secondary,0(carboxylic_acid) > 4(amine_secondary),carboxylic_acid,carboxylic_acid(1.5~5.0); amine_secondary(9.5~11.5)
C[C@H](N)C(=O)N[C@@H](C)C(=O)N[C@@H](C)C(=O)N1CCC[C@H]1C(O)=O,8.2,21:2,carboxylic_acid:amine_primary,L-Alanyl-L-alanyl-L-alanyl-L-proline,[HL]/[L][H],0.1,25.0,21:2,carboxylic_acid:amine_primary,21(carboxylic_acid) > 2(amine_primary),amine_primary,carboxylic_acid(1.5~5.0); amine_primary(9.0~11.0)
C[C@H](N)C(=O)N[C@@H](C)C(=O)N[C@@H](C)C(=O)N1CCC[C@H]1C(O)=O,3.16,21:2,carboxylic_acid:amine_primary,L-Alanyl-L-alanyl-L-alanyl-L-proline,[H₂L]/[HL][H],0.1,25.0,21:2,carboxylic_acid:amine_primary,21(carboxylic_acid) > 2(amine_primary),carboxylic_acid,carboxylic_acid(1.5~5.0); amine_primary(9.0~11.0)
C[C@H](N)C(=O)N[C@@H](C)C(=O)N1CCC[C@H]1C(=O)N[C@@H](C)C(O)=O,8.2,21:2,carboxylic_acid:amine_primary,L-Alanyl-L-alanyl-L-prolyl-L-alanine,[HL]/[L][H],0.1,25.0,21:2,carboxylic_acid:amine_primary,21(carboxylic_acid) > 2(amine_primary),amine_primary,carboxylic_acid(1.5~5.0); amine_primary(9.0~11.0)
C[C@H](N)C(=O)N[C@@H](C)C(=O)N1CCC[C@H]1C(=O)N[C@@H](C)C(O)=O,3.34,21:2,carboxylic_acid:amine_primary,L-Alanyl-L-alanyl-L-prolyl-L-alanine,[H₂L]/[HL][H],0.1,25.0,21:2,carboxylic_acid:amine_primary,21(carboxylic_acid) > 2(amine_primary),carboxylic_acid,carboxylic_acid(1.5~5.0); amine_primary(9.0~11.0)
C[C@H](N)C(=O)N1CCC[C@H]1C(=O)N[C@@H](C)C(=O)N[C@@H](C)C(O)=O,8.28,21:2,carboxylic_acid:amine_primary,L-Alanyl-L-prolyl-L-alanyl-L-alanine,[HL]/[L][H],0.1,25.0,21:2,carboxylic_acid:amine_primary,21(carboxylic_acid) > 2(amine_primary),amine_primary,carboxylic_acid(1.5~5.0); amine_primary(9.0~11.0)
C[C@H](N)C(=O)N1CCC[C@H]1C(=O)N[C@@H](C)C(=O)N[C@@H](C)C(O)=O,3.31,21:2,carboxylic_acid:amine_primary,L-Alanyl-L-prolyl-L-alanyl-L-alanine,[H₂L]/[HL][H],0.1,25.0,21:2,carboxylic_acid:amine_primary,21(carboxylic_acid) > 2(amine_primary),carboxylic_acid,carboxylic_acid(1.5~5.0); amine_primary(9.0~11.0)
C[C@H](NC(=O)[C@H](C)NC(=O)[C@H](C)NC(=O)[C@@H]1CCCN1)C(O)=O,8.37,21:2,carboxylic_acid:amine_secondary,L-Prolyl-L-alanyl-L-alanyl-L-alanine,[HL]/[L][H],0.1,25.0,21:2,carboxylic_acid:amine_secondary,21(carboxylic_acid) > 2(amine_secondary),amine_secondary,carboxylic_acid(1.5~5.0); amine_secondary(9.5~11.5)
C[C@H](NC(=O)[C@H](C)NC(=O)[C@H](C)NC(=O)[C@@H]1CCCN1)C(O)=O,3.1,21:2,carboxylic_acid:amine_secondary,L-Prolyl-L-alanyl-L-alanyl-L-alanine,[H₂L]/[HL][H],0.1,25.0,21:2,carboxylic_acid:amine_secondary,21(carboxylic_acid) > 2(amine_secondary),carboxylic_acid,carboxylic_acid(1.5~5.0); amine_secondary(9.5~11.5)
NCC(=O)N1CCC[C@H]1C(=O)NCC(=O)N[C@@H](Cc2ccccc2)C(O)=O,8.33,7,tertiary_amine,Glycyl-L-prolylglycyl-L-phenylalanine,[HL]/[L][H],0.1,25.0,7,tertiary_amine,7(tertiary_amine),Unknown,tertiary_amine(Unknown)