SMILES,pKa,Dissociable_Atoms,Functional_Group,Name,Equilibrium,Ionic,Temperature,Dissociable_Atoms_Ordered,Functional_Group_Ordered,Dissociation_Order,Dissociating_Group,Functional_Group_pKa_Ranges
Oc1c(cc(c2cccnc12)[S](O)(=O)=O)[N+]([O-])=O,5.34,0:12,phenol:alcohol,8-Hydroxy-7-nitroquinoline-5-sulfonic acid,[HL]/[L][H],0.1,25.0,0:12,phenol:alcohol,0(phenol) > 12(alcohol),phenol,phenol(8.0~11.0); alcohol(15.0~18.0)
Oc1c(cc(c2cccnc12)[S](O)(=O)=O)[N+]([O-])=O,5.18,0:12,phenol:alcohol,8-Hydroxy-7-nitroquinoline-5-sulfonic acid,[HL]/[L][H],0.5,25.0,0:12,phenol:alcohol,0(phenol) > 12(alcohol),phenol,phenol(8.0~11.0); alcohol(15.0~18.0)
Oc1c(cc(c2cccnc12)[S](O)(=O)=O)[N+]([O-])=O,5.16,0:12,phenol:alcohol,8-Hydroxy-7-nitroquinoline-5-sulfonic acid,[HL]/[L][H],1.0,25.0,0:12,phenol:alcohol,0(phenol) > 12(alcohol),phenol,phenol(8.0~11.0); alcohol(15.0~18.0)
Oc1c(cc(c2cccnc12)[S](O)(=O)=O)[N+]([O-])=O,5.28,0:12,phenol:alcohol,8-Hydroxy-7-nitroquinoline-5-sulfonic acid,[HL]/[L][H],2.0,25.0,0:12,phenol:alcohol,0(phenol) > 12(alcohol),phenol,phenol(8.0~11.0); alcohol(15.0~18.0)
Oc1c(cc(c2cccnc12)[S](O)(=O)=O)[N+]([O-])=O,5.75,0:12,phenol:alcohol,8-Hydroxy-7-nitroquinoline-5-sulfonic acid,[HL]/[L][H],0.0,25.0,0:12,phenol:alcohol,0(phenol) > 12(alcohol),phenol,phenol(8.0~11.0); alcohol(15.0~18.0)
Oc1c(cc(c2cccnc12)[S](O)(=O)=O)[N+]([O-])=O,1.72,0:12,phenol:alcohol,8-Hydroxy-7-nitroquinoline-5-sulfonic acid,[H₂L]/[HL][H],0.1,25.0,0:12,phenol:alcohol,0(phenol) > 12(alcohol),phenol,phenol(8.0~11.0); alcohol(15.0~18.0)
Oc1c(cc(c2cccnc12)[S](O)(=O)=O)[N+]([O-])=O,1.73,0:12,phenol:alcohol,8-Hydroxy-7-nitroquinoline-5-sulfonic acid,[H₂L]/[HL][H],0.5,25.0,0:12,phenol:alcohol,0(phenol) > 12(alcohol),phenol,phenol(8.0~11.0); alcohol(15.0~18.0)
Oc1c(cc(c2cccnc12)[S](O)(=O)=O)[N+]([O-])=O,1.76,0:12,phenol:alcohol,8-Hydroxy-7-nitroquinoline-5-sulfonic acid,[H₂L]/[HL][H],1.0,25.0,0:12,phenol:alcohol,0(phenol) > 12(alcohol),phenol,phenol(8.0~11.0); alcohol(15.0~18.0)
Oc1c(cc(c2cccnc12)[S](O)(=O)=O)[N+]([O-])=O,1.9,0:12,phenol:alcohol,8-Hydroxy-7-nitroquinoline-5-sulfonic acid,[H₂L]/[HL][H],2.0,25.0,0:12,phenol:alcohol,0(phenol) > 12(alcohol),phenol,phenol(8.0~11.0); alcohol(15.0~18.0)
Oc1c(cc(c2cccnc12)[S](O)(=O)=O)[N+]([O-])=O,1.95,0:12,phenol:alcohol,8-Hydroxy-7-nitroquinoline-5-sulfonic acid,[H₂L]/[HL][H],0.0,25.0,0:12,phenol:alcohol,0(phenol) > 12(alcohol),phenol,phenol(8.0~11.0); alcohol(15.0~18.0)
[Na+].[Na+].[O-][S](=O)(=O)c1ccc(N\N=C\2C=C(c3cccnc3C2=O)[S]([O-])(=O)=O)c4ccccc14,6.86,3:23:50:57,sulfonic_acid:sulfonic_acid:pyridine_nitrogen:sulfonic_acid,8-Hydroxy-7-(4-sulfo-1-naphthylazo)quinoline-5-sulfonic acid (SNAZOXS),[HL]/[L][H],0.1,25.0,3:23:57:50,sulfonic_acid:sulfonic_acid:sulfonic_acid:pyridine_nitrogen,3(sulfonic_acid) > 23(sulfonic_acid) > 57(sulfonic_acid) > 50(pyridine_nitrogen),sulfonic_acid,sulfonic_acid(0.0~2.0); sulfonic_acid(0.0~2.0); pyridine_nitrogen(Unknown); sulfonic_acid(0.0~2.0)
[Na+].[Na+].[O-][S](=O)(=O)c1ccc(N\N=C\2C=C(c3cccnc3C2=O)[S]([O-])(=O)=O)c4ccccc14,2.88,3:23:50:57,sulfonic_acid:sulfonic_acid:pyridine_nitrogen:sulfonic_acid,8-Hydroxy-7-(4-sulfo-1-naphthylazo)quinoline-5-sulfonic acid (SNAZOXS),[H₂L]/[HL][H],0.1,25.0,3:23:57:50,sulfonic_acid:sulfonic_acid:sulfonic_acid:pyridine_nitrogen,3(sulfonic_acid) > 23(sulfonic_acid) > 57(sulfonic_acid) > 50(pyridine_nitrogen),sulfonic_acid,sulfonic_acid(0.0~2.0); sulfonic_acid(0.0~2.0); pyridine_nitrogen(Unknown); sulfonic_acid(0.0~2.0)
[Na+].[Na+].[O-][S](=O)(=O)c1ccc(N\N=C\2C=C(c3cccnc3C2=O)[S]([O-])(=O)=O)c4ccccc14,0.0,3:23:50:57,sulfonic_acid:sulfonic_acid:pyridine_nitrogen:sulfonic_acid,8-Hydroxy-7-(4-sulfo-1-naphthylazo)quinoline-5-sulfonic acid (SNAZOXS),[H₃L]/[H₂L][H],0.1,25.0,3:23:57:50,sulfonic_acid:sulfonic_acid:sulfonic_acid:pyridine_nitrogen,3(sulfonic_acid) > 23(sulfonic_acid) > 57(sulfonic_acid) > 50(pyridine_nitrogen),sulfonic_acid,sulfonic_acid(0.0~2.0); sulfonic_acid(0.0~2.0); pyridine_nitrogen(Unknown); sulfonic_acid(0.0~2.0)
OC(=O)c1ccccc1N=Nc2cc(c3cccnc3c2O)[S](O)(=O)=O,9.02,0:21:23,carboxylic_acid:phenol:alcohol,8-Hydroxy-7-(2-carboxyphenylazo)quinoline-5-sulfonic acid,[HL]/[L][H],0.1,25.0,0:21:23,carboxylic_acid:phenol:alcohol,0(carboxylic_acid) > 21(phenol) > 23(alcohol),phenol,carboxylic_acid(1.5~5.0); phenol(8.0~11.0); alcohol(15.0~18.0)
OC(=O)c1ccccc1N=Nc2cc(c3cccnc3c2O)[S](O)(=O)=O,3.63,0:21:23,carboxylic_acid:phenol:alcohol,8-Hydroxy-7-(2-carboxyphenylazo)quinoline-5-sulfonic acid,[H₂L]/[HL][H],0.1,25.0,0:21:23,carboxylic_acid:phenol:alcohol,0(carboxylic_acid) > 21(phenol) > 23(alcohol),carboxylic_acid,carboxylic_acid(1.5~5.0); phenol(8.0~11.0); alcohol(15.0~18.0)
OC(=O)c1ccccc1N=Nc2cc(c3cccnc3c2O)[S](O)(=O)=O,3.34,0:21:23,carboxylic_acid:phenol:alcohol,8-Hydroxy-7-(2-carboxyphenylazo)quinoline-5-sulfonic acid,[H₃L]/[H₂L][H],0.1,25.0,0:21:23,carboxylic_acid:phenol:alcohol,0(carboxylic_acid) > 21(phenol) > 23(alcohol),carboxylic_acid,carboxylic_acid(1.5~5.0); phenol(8.0~11.0); alcohol(15.0~18.0)
Oc1cc(cc2cc(cc(N=Nc3cc(c4cccnc4c3O)[S](O)(=O)=O)c12)[S](O)(=O)=O)[S](O)(=O)=O,11.46,0:22:24,phenol:phenol:alcohol,"8-Hydroxy-7-(8-hydroxy-3,6-disulfo-1-naphthylazo)quinoline-5-sulfonic acid",[HL]/[L][H],0.1,25.0,0:22:24,phenol:phenol:alcohol,0(phenol) > 22(phenol) > 24(alcohol),phenol,phenol(8.0~11.0); phenol(8.0~11.0); alcohol(15.0~18.0)
Oc1cc(cc2cc(cc(N=Nc3cc(c4cccnc4c3O)[S](O)(=O)=O)c12)[S](O)(=O)=O)[S](O)(=O)=O,8.33,0:22:24,phenol:phenol:alcohol,"8-Hydroxy-7-(8-hydroxy-3,6-disulfo-1-naphthylazo)quinoline-5-sulfonic acid",[H₂L]/[HL][H],0.1,25.0,0:22:24,phenol:phenol:alcohol,0(phenol) > 22(phenol) > 24(alcohol),phenol,phenol(8.0~11.0); phenol(8.0~11.0); alcohol(15.0~18.0)
Oc1cc(cc2cc(cc(N=Nc3cc(c4cccnc4c3O)[S](O)(=O)=O)c12)[S](O)(=O)=O)[S](O)(=O)=O,3.81,0:22:24,phenol:phenol:alcohol,"8-Hydroxy-7-(8-hydroxy-3,6-disulfo-1-naphthylazo)quinoline-5-sulfonic acid",[H₃L]/[H₂L][H],0.1,25.0,0:22:24,phenol:phenol:alcohol,0(phenol) > 22(phenol) > 24(alcohol),phenol,phenol(8.0~11.0); phenol(8.0~11.0); alcohol(15.0~18.0)
COC(=O)c1ccc2cccc(O)c2n1,9.14,22,ring_nitrogen,8-Hydroxyquinoline-2-carboxylic acid methyl ester,[HL]/[L][H],0.1,25.0,22,ring_nitrogen,22(ring_nitrogen),Unknown,ring_nitrogen(Unknown)
COC(=O)c1ccc2cccc(O)c2n1,9.36,22,ring_nitrogen,8-Hydroxyquinoline-2-carboxylic acid methyl ester,[HL]/[L][H],0.0,25.0,22,ring_nitrogen,22(ring_nitrogen),Unknown,ring_nitrogen(Unknown)
Sc1cccc2cccnc12,8.25,9,pyridine_nitrogen,8-Mercaptoquinoline (Quinoline-8-thiol),[HL]/[L][H],0.1,25.0,9,pyridine_nitrogen,9(pyridine_nitrogen),Unknown,pyridine_nitrogen(Unknown)
Sc1cccc2cccnc12,8.3,9,pyridine_nitrogen,8-Mercaptoquinoline (Quinoline-8-thiol),[HL]/[L][H],0.1,20.0,9,pyridine_nitrogen,9(pyridine_nitrogen),Unknown,pyridine_nitrogen(Unknown)
Sc1cccc2cccnc12,8.17,9,pyridine_nitrogen,8-Mercaptoquinoline (Quinoline-8-thiol),[HL]/[L][H],0.5,20.0,9,pyridine_nitrogen,9(pyridine_nitrogen),Unknown,pyridine_nitrogen(Unknown)
Sc1cccc2cccnc12,8.15,9,pyridine_nitrogen,8-Mercaptoquinoline (Quinoline-8-thiol),[HL]/[L][H],1.0,20.0,9,pyridine_nitrogen,9(pyridine_nitrogen),Unknown,pyridine_nitrogen(Unknown)
Sc1cccc2cccnc12,8.36,9,pyridine_nitrogen,8-Mercaptoquinoline (Quinoline-8-thiol),[HL]/[L][H],0.0,25.0,9,pyridine_nitrogen,9(pyridine_nitrogen),Unknown,pyridine_nitrogen(Unknown)
Sc1cccc2cccnc12,8.49,9,pyridine_nitrogen,8-Mercaptoquinoline (Quinoline-8-thiol),[HL]/[L][H],0.0,20.0,9,pyridine_nitrogen,9(pyridine_nitrogen),Unknown,pyridine_nitrogen(Unknown)
Sc1cccc2cccnc12,2.01,9,pyridine_nitrogen,8-Mercaptoquinoline (Quinoline-8-thiol),[H₂L]/[HL][H],0.1,25.0,9,pyridine_nitrogen,9(pyridine_nitrogen),Unknown,pyridine_nitrogen(Unknown)
Sc1cccc2cccnc12,2.02,9,pyridine_nitrogen,8-Mercaptoquinoline (Quinoline-8-thiol),[H₂L]/[HL][H],0.1,20.0,9,pyridine_nitrogen,9(pyridine_nitrogen),Unknown,pyridine_nitrogen(Unknown)
Sc1cccc2cccnc12,2.09,9,pyridine_nitrogen,8-Mercaptoquinoline (Quinoline-8-thiol),[H₂L]/[HL][H],0.5,20.0,9,pyridine_nitrogen,9(pyridine_nitrogen),Unknown,pyridine_nitrogen(Unknown)
Sc1cccc2cccnc12,2.18,9,pyridine_nitrogen,8-Mercaptoquinoline (Quinoline-8-thiol),[H₂L]/[HL][H],1.0,20.0,9,pyridine_nitrogen,9(pyridine_nitrogen),Unknown,pyridine_nitrogen(Unknown)
Sc1cccc2cccnc12,2.02,9,pyridine_nitrogen,8-Mercaptoquinoline (Quinoline-8-thiol),[H₂L]/[HL][H],0.0,20.0,9,pyridine_nitrogen,9(pyridine_nitrogen),Unknown,pyridine_nitrogen(Unknown)
Cc1ccc2cccc(S)c2n1,8.99,16,ring_nitrogen,8-Mercapto-2-methylquinoline,[HL]/[L][H],0.1,25.0,16,ring_nitrogen,16(ring_nitrogen),Unknown,ring_nitrogen(Unknown)
Cc1ccc2cccc(S)c2n1,2.22,16,ring_nitrogen,8-Mercapto-2-methylquinoline,[H₂L]/[HL][H],0.1,25.0,16,ring_nitrogen,16(ring_nitrogen),Unknown,ring_nitrogen(Unknown)
Sc1cccc2ccc(nc12)c3ccccc3,7.89,12,pyridine_nitrogen,8-Mercapto-2-phenylquinoline (環氮估計),[HL]/[L][H],0.1,20.0,12,pyridine_nitrogen,12(pyridine_nitrogen),Unknown,pyridine_nitrogen(Unknown)
Sc1cccc2ccc(nc12)c3ccccc3,1.3,12,pyridine_nitrogen,8-Mercapto-2-phenylquinoline (環氮估計),[H₂L]/[HL][H],0.1,20.0,12,pyridine_nitrogen,12(pyridine_nitrogen),Unknown,pyridine_nitrogen(Unknown)
Sc1cccc2c(ccnc12)c3ccccc3,8.38,12,pyridine_nitrogen,8-Mercapto-4-phenylquinoline (環氮估計),[HL]/[L][H],0.1,20.0,12,pyridine_nitrogen,12(pyridine_nitrogen),Unknown,pyridine_nitrogen(Unknown)
Sc1cccc2c(ccnc12)c3ccccc3,2.0,12,pyridine_nitrogen,8-Mercapto-4-phenylquinoline (環氮估計),[H₂L]/[HL][H],0.1,20.0,12,pyridine_nitrogen,12(pyridine_nitrogen),Unknown,pyridine_nitrogen(Unknown)
Sc1ccc(c2ccccc2)c3cccnc13,8.3,15,pyridine_nitrogen,8-Mercapto-5-phenylquinoline,[HL]/[L][H],0.1,20.0,15,pyridine_nitrogen,15(pyridine_nitrogen),Unknown,pyridine_nitrogen(Unknown)
Sc1ccc(c2ccccc2)c3cccnc13,1.9,15,pyridine_nitrogen,8-Mercapto-5-phenylquinoline,[H₂L]/[HL][H],0.1,20.0,15,pyridine_nitrogen,15(pyridine_nitrogen),Unknown,pyridine_nitrogen(Unknown)
Sc1cc(cc2cccnc12)c3ccccc3,8.08,9,pyridine_nitrogen,8-Mercapto-6-phenylquinoline,[HL]/[L][H],0.1,20.0,9,pyridine_nitrogen,9(pyridine_nitrogen),Unknown,pyridine_nitrogen(Unknown)
Sc1cc(cc2cccnc12)c3ccccc3,1.9,9,pyridine_nitrogen,8-Mercapto-6-phenylquinoline,[H₂L]/[HL][H],0.1,20.0,9,pyridine_nitrogen,9(pyridine_nitrogen),Unknown,pyridine_nitrogen(Unknown)
Sc1ccc(S)c2ncccc12,9.3,11,pyridine_nitrogen,"5,8-Dimercaptoquinoline (環氮估計)",[HL]/[L][H],0.1,20.0,11,pyridine_nitrogen,11(pyridine_nitrogen),Unknown,pyridine_nitrogen(Unknown)
Sc1ccc(S)c2ncccc12,4.53,11,pyridine_nitrogen,"5,8-Dimercaptoquinoline (環氮估計)",[H₂L]/[HL][H],0.1,20.0,11,pyridine_nitrogen,11(pyridine_nitrogen),Unknown,pyridine_nitrogen(Unknown)
Sc1ccc(S)c2ncccc12,1.6,11,pyridine_nitrogen,"5,8-Dimercaptoquinoline (環氮估計)",[H₃L]/[H₂L][H],0.1,20.0,11,pyridine_nitrogen,11(pyridine_nitrogen),Unknown,pyridine_nitrogen(Unknown)
CSc1cccc2cccnc12,3.42,10,pyridine_nitrogen,8-(Methylthio)quinoline,[HL]/[L][H],0.1,25.0,10,pyridine_nitrogen,10(pyridine_nitrogen),Unknown,pyridine_nitrogen(Unknown)
[SeH]c1cccc2cccnc12,8.64,9,pyridine_nitrogen,Quinoline-8-selenol,[HL]/[L][H],0.1,25.0,9,pyridine_nitrogen,9(pyridine_nitrogen),Unknown,pyridine_nitrogen(Unknown)
[SeH]c1cccc2cccnc12,8.18,9,pyridine_nitrogen,Quinoline-8-selenol,[HL]/[L][H],0.0,25.0,9,pyridine_nitrogen,9(pyridine_nitrogen),Unknown,pyridine_nitrogen(Unknown)
C[Se]c1cccc2cccnc12,3.15,10,pyridine_nitrogen,8-(Methylseleno)quinoline,[HL]/[L][H],0.1,25.0,10,pyridine_nitrogen,10(pyridine_nitrogen),Unknown,pyridine_nitrogen(Unknown)
C[Se]c1cccc2cccnc12,3.35,10,pyridine_nitrogen,8-(Methylseleno)quinoline,[HL]/[L][H],0.5,25.0,10,pyridine_nitrogen,10(pyridine_nitrogen),Unknown,pyridine_nitrogen(Unknown)
Nc1cccc2cccnc12,3.98,9,pyridine_nitrogen,8-Aminoquinoline,[HL]/[L][H],0.1,25.0,9,pyridine_nitrogen,9(pyridine_nitrogen),Unknown,pyridine_nitrogen(Unknown)
Nc1cccc2cccnc12,4.04,9,pyridine_nitrogen,8-Aminoquinoline,[HL]/[L][H],0.1,20.0,9,pyridine_nitrogen,9(pyridine_nitrogen),Unknown,pyridine_nitrogen(Unknown)
Nc1cccc2cccnc12,3.95,9,pyridine_nitrogen,8-Aminoquinoline,[HL]/[L][H],0.0,25.0,9,pyridine_nitrogen,9(pyridine_nitrogen),Unknown,pyridine_nitrogen(Unknown)
c1ccc(nc1)c2ccccn2,4.41,4:11,pyridine_nitrogen:pyridine_nitrogen,"2,2'-Bipyridyl",[HL]/[L][H],0.1,25.0,4:11,pyridine_nitrogen:pyridine_nitrogen,4(pyridine_nitrogen) > 11(pyridine_nitrogen),Unknown,pyridine_nitrogen(Unknown); pyridine_nitrogen(Unknown)
c1ccc(nc1)c2ccccn2,4.53,4:11,pyridine_nitrogen:pyridine_nitrogen,"2,2'-Bipyridyl",[HL]/[L][H],0.5,25.0,4:11,pyridine_nitrogen:pyridine_nitrogen,4(pyridine_nitrogen) > 11(pyridine_nitrogen),Unknown,pyridine_nitrogen(Unknown); pyridine_nitrogen(Unknown)
c1ccc(nc1)c2ccccn2,4.66,4:11,pyridine_nitrogen:pyridine_nitrogen,"2,2'-Bipyridyl",[HL]/[L][H],1.0,25.0,4:11,pyridine_nitrogen:pyridine_nitrogen,4(pyridine_nitrogen) > 11(pyridine_nitrogen),Unknown,pyridine_nitrogen(Unknown); pyridine_nitrogen(Unknown)
c1ccc(nc1)c2ccccn2,4.95,4:11,pyridine_nitrogen:pyridine_nitrogen,"2,2'-Bipyridyl",[HL]/[L][H],2.0,25.0,4:11,pyridine_nitrogen:pyridine_nitrogen,4(pyridine_nitrogen) > 11(pyridine_nitrogen),Unknown,pyridine_nitrogen(Unknown); pyridine_nitrogen(Unknown)
c1ccc(nc1)c2ccccn2,5.32,4:11,pyridine_nitrogen:pyridine_nitrogen,"2,2'-Bipyridyl",[HL]/[L][H],3.0,25.0,4:11,pyridine_nitrogen:pyridine_nitrogen,4(pyridine_nitrogen) > 11(pyridine_nitrogen),Unknown,pyridine_nitrogen(Unknown); pyridine_nitrogen(Unknown)
c1ccc(nc1)c2ccccn2,4.34,4:11,pyridine_nitrogen:pyridine_nitrogen,"2,2'-Bipyridyl",[HL]/[L][H],0.0,25.0,4:11,pyridine_nitrogen:pyridine_nitrogen,4(pyridine_nitrogen) > 11(pyridine_nitrogen),Unknown,pyridine_nitrogen(Unknown); pyridine_nitrogen(Unknown)
c1ccc(nc1)c2ccccn2,1.3,4:11,pyridine_nitrogen:pyridine_nitrogen,"2,2'-Bipyridyl",[H₂L]/[HL][H],0.1,25.0,4:11,pyridine_nitrogen:pyridine_nitrogen,4(pyridine_nitrogen) > 11(pyridine_nitrogen),Unknown,pyridine_nitrogen(Unknown); pyridine_nitrogen(Unknown)
c1ccc(nc1)c2cccnc2,4.42,4,pyridine_nitrogen,"2,3'-Bipyridyl",[HL]/[L][H],0.1,20.0,4,pyridine_nitrogen,4(pyridine_nitrogen),Unknown,pyridine_nitrogen(Unknown)
c1ccc(nc1)c2ccncc2,4.77,4,pyridine_nitrogen,"2,4'-Bipyridyl",[HL]/[L][H],0.1,20.0,4,pyridine_nitrogen,4(pyridine_nitrogen),Unknown,pyridine_nitrogen(Unknown)
c1cncc(c1)c2cccnc2,4.6,2,pyridine_nitrogen,"3,3'-Bipyridyl",[HL]/[L][H],0.1,20.0,2,pyridine_nitrogen,2(pyridine_nitrogen),Unknown,pyridine_nitrogen(Unknown)
c1cncc(c1)c2ccncc2,4.85,2,pyridine_nitrogen,"3,4'-Bipyridyl",[HL]/[L][H],0.1,20.0,2,pyridine_nitrogen,2(pyridine_nitrogen),Unknown,pyridine_nitrogen(Unknown)
c1cc(ccn1)c2ccncc2,4.67,7,heterocyclic_nitrogen,"4,4'-Bipyridyl",[HL]/[L][H],0.1,25.0,7,heterocyclic_nitrogen,7(heterocyclic_nitrogen),Unknown,heterocyclic_nitrogen(Unknown)
Cc1ccnc(c1)c2cc(C)ccn2,5.34,20,heterocyclic_nitrogen,"4,4'-Dimethyl-2,2'-bipyridyl",[HL]/[L][H],0.1,25.0,20,heterocyclic_nitrogen,20(heterocyclic_nitrogen),Unknown,heterocyclic_nitrogen(Unknown)
C(c1ccccn1)c2ccccn2,5.18,6:12,pyridine_nitrogen:pyridine_nitrogen,Methylenedi-2-pyridine (Di-2-pyridylmethane),[HL]/[L][H],0.1,20.0,6:12,pyridine_nitrogen:pyridine_nitrogen,6(pyridine_nitrogen) > 12(pyridine_nitrogen),Unknown,pyridine_nitrogen(Unknown); pyridine_nitrogen(Unknown)
C(c1ccccn1)c2ccccn2,2.69,6:12,pyridine_nitrogen:pyridine_nitrogen,Methylenedi-2-pyridine (Di-2-pyridylmethane),[H₂L]/[HL][H],0.1,20.0,6:12,pyridine_nitrogen:pyridine_nitrogen,6(pyridine_nitrogen) > 12(pyridine_nitrogen),Unknown,pyridine_nitrogen(Unknown); pyridine_nitrogen(Unknown)
C(Cc1ccccn1)c2ccccn2,5.8,7:13,pyridine_nitrogen:pyridine_nitrogen,"Ethylenedi-2-pyridine (1,2-Di-2-pyridylethane)",[HL]/[L][H],0.1,20.0,7:13,pyridine_nitrogen:pyridine_nitrogen,7(pyridine_nitrogen) > 13(pyridine_nitrogen),Unknown,pyridine_nitrogen(Unknown); pyridine_nitrogen(Unknown)
C(Cc1ccccn1)c2ccccn2,3.99,7:13,pyridine_nitrogen:pyridine_nitrogen,"Ethylenedi-2-pyridine (1,2-Di-2-pyridylethane)",[H₂L]/[HL][H],0.1,20.0,7:13,pyridine_nitrogen:pyridine_nitrogen,7(pyridine_nitrogen) > 13(pyridine_nitrogen),Unknown,pyridine_nitrogen(Unknown); pyridine_nitrogen(Unknown)
C(Cc1ccccn1)Cc2ccccn2,6.15,7:14,pyridine_nitrogen:pyridine_nitrogen,"Trimethylenedi-2-pyridine (1,3-Di-2-pyridylpropane)",[HL]/[L][H],0.1,20.0,7:14,pyridine_nitrogen:pyridine_nitrogen,7(pyridine_nitrogen) > 14(pyridine_nitrogen),Unknown,pyridine_nitrogen(Unknown); pyridine_nitrogen(Unknown)
C(Cc1ccccn1)Cc2ccccn2,4.8,7:14,pyridine_nitrogen:pyridine_nitrogen,"Trimethylenedi-2-pyridine (1,3-Di-2-pyridylpropane)",[H₂L]/[HL][H],0.1,20.0,7:14,pyridine_nitrogen:pyridine_nitrogen,7(pyridine_nitrogen) > 14(pyridine_nitrogen),Unknown,pyridine_nitrogen(Unknown); pyridine_nitrogen(Unknown)
C(CCc1ccccn1)Cc2ccccn2,6.25,8:15,pyridine_nitrogen:pyridine_nitrogen,"Tetramethylenedi-2-pyridine (1,4-Di-2-pyridylbutane)",[HL]/[L][H],0.1,20.0,8:15,pyridine_nitrogen:pyridine_nitrogen,8(pyridine_nitrogen) > 15(pyridine_nitrogen),Unknown,pyridine_nitrogen(Unknown); pyridine_nitrogen(Unknown)
C(CCc1ccccn1)Cc2ccccn2,5.27,8:15,pyridine_nitrogen:pyridine_nitrogen,"Tetramethylenedi-2-pyridine (1,4-Di-2-pyridylbutane)",[H₂L]/[HL][H],0.1,20.0,8:15,pyridine_nitrogen:pyridine_nitrogen,8(pyridine_nitrogen) > 15(pyridine_nitrogen),Unknown,pyridine_nitrogen(Unknown); pyridine_nitrogen(Unknown)
C(CCc1ccccn1)CCc2ccccn2,6.33,8:16,pyridine_nitrogen:pyridine_nitrogen,"Pentamethylenedi-2-pyridine (1,5-Di-2-pyridylpentane)",[HL]/[L][H],0.1,20.0,8:16,pyridine_nitrogen:pyridine_nitrogen,8(pyridine_nitrogen) > 16(pyridine_nitrogen),Unknown,pyridine_nitrogen(Unknown); pyridine_nitrogen(Unknown)
C(CCc1ccccn1)CCc2ccccn2,5.45,8:16,pyridine_nitrogen:pyridine_nitrogen,"Pentamethylenedi-2-pyridine (1,5-Di-2-pyridylpentane)",[H₂L]/[HL][H],0.1,20.0,8:16,pyridine_nitrogen:pyridine_nitrogen,8(pyridine_nitrogen) > 16(pyridine_nitrogen),Unknown,pyridine_nitrogen(Unknown); pyridine_nitrogen(Unknown)
C(CCCc1ccccn1)CCc2ccccn2,6.38,9:17,pyridine_nitrogen:pyridine_nitrogen,"Hexamethylenedi-2-pyridine (1,6-Di-2-pyridylhexane)",[HL]/[L][H],0.1,20.0,9:17,pyridine_nitrogen:pyridine_nitrogen,9(pyridine_nitrogen) > 17(pyridine_nitrogen),Unknown,pyridine_nitrogen(Unknown); pyridine_nitrogen(Unknown)
C(CCCc1ccccn1)CCc2ccccn2,5.61,9:17,pyridine_nitrogen:pyridine_nitrogen,"Hexamethylenedi-2-pyridine (1,6-Di-2-pyridylhexane)",[H₂L]/[HL][H],0.1,20.0,9:17,pyridine_nitrogen:pyridine_nitrogen,9(pyridine_nitrogen) > 17(pyridine_nitrogen),Unknown,pyridine_nitrogen(Unknown); pyridine_nitrogen(Unknown)
c1ccc(C=Cc2ccccn2)nc1,4.95,11:12,pyridine_nitrogen:pyridine_nitrogen,"trans-Vinylenedi-2-pyridine (1,2-Di-2-pyridylethene)",[HL]/[L][H],0.1,25.0,11:12,pyridine_nitrogen:pyridine_nitrogen,11(pyridine_nitrogen) > 12(pyridine_nitrogen),Unknown,pyridine_nitrogen(Unknown); pyridine_nitrogen(Unknown)
c1ccc(C=Cc2ccccn2)nc1,2.81,11:12,pyridine_nitrogen:pyridine_nitrogen,"trans-Vinylenedi-2-pyridine (1,2-Di-2-pyridylethene)",[H₂L]/[HL][H],0.1,25.0,11:12,pyridine_nitrogen:pyridine_nitrogen,11(pyridine_nitrogen) > 12(pyridine_nitrogen),Unknown,pyridine_nitrogen(Unknown); pyridine_nitrogen(Unknown)
c1cc(ccn1)C=Cc2ccncc2,5.65,5:11,pyridine_nitrogen:pyridine_nitrogen,"trans-Vinylenedi-4-pyridine (1,2-Di-4-pyridylethene)",[HL]/[L][H],0.1,25.0,5:11,pyridine_nitrogen:pyridine_nitrogen,5(pyridine_nitrogen) > 11(pyridine_nitrogen),Unknown,pyridine_nitrogen(Unknown); pyridine_nitrogen(Unknown)
c1cc(ccn1)C=Cc2ccncc2,4.41,5:11,pyridine_nitrogen:pyridine_nitrogen,"trans-Vinylenedi-4-pyridine (1,2-Di-4-pyridylethene)",[H₂L]/[HL][H],0.1,25.0,5:11,pyridine_nitrogen:pyridine_nitrogen,5(pyridine_nitrogen) > 11(pyridine_nitrogen),Unknown,pyridine_nitrogen(Unknown); pyridine_nitrogen(Unknown)
NCc1cccc(n1)c2cccc(CN)n2,9.11,9:22,ring_nitrogen:ring_nitrogen,"6,6'-Bis(aminomethyl)-2,2'-bipyridyl",[HL]/[L][H],0.1,25.0,9:22,ring_nitrogen:ring_nitrogen,9(ring_nitrogen) > 22(ring_nitrogen),Unknown,ring_nitrogen(Unknown); ring_nitrogen(Unknown)
NCc1cccc(n1)c2cccc(CN)n2,8.39,9:22,ring_nitrogen:ring_nitrogen,"6,6'-Bis(aminomethyl)-2,2'-bipyridyl",[H₂L]/[HL][H],0.1,25.0,9:22,ring_nitrogen:ring_nitrogen,9(ring_nitrogen) > 22(ring_nitrogen),Unknown,ring_nitrogen(Unknown); ring_nitrogen(Unknown)