SMILES,pKa,Dissociable_Atoms,Functional_Group,Name,Dissociable_Atoms_Ordered,Functional_Group_Ordered,Dissociation_Order
O[P](O)(O)=O,2.222,0:1:2:3,phosphate:phosphate:phosphate:phosphate,Hydrogen phosphate (Phosphoric acid),0:1:2:3,phosphate:phosphate:phosphate:phosphate,0(phosphate) > 1(phosphate) > 2(phosphate) > 3(phosphate)
O[P](O)(O)=O,0.0,0:1:2:3,phosphate:phosphate:phosphate:phosphate,Hydrogen phosphate (Phosphoric acid),0:1:2:3,phosphate:phosphate:phosphate:phosphate,0(phosphate) > 1(phosphate) > 2(phosphate) > 3(phosphate)
O[P](O)(=O)O[P](O)(O)=O,8.25,0:1:2:5,phosphate:phosphate:phosphate:phosphate,Hydrogen diphosphate (Pyrophosphoric acid),0:1:2:5,phosphate:phosphate:phosphate:phosphate,0(phosphate) > 1(phosphate) > 2(phosphate) > 5(phosphate)
O[P](O)(=O)O[P](O)(O)=O,8.37,0:1:2:5,phosphate:phosphate:phosphate:phosphate,Hydrogen diphosphate (Pyrophosphoric acid),0:1:2:5,phosphate:phosphate:phosphate:phosphate,0(phosphate) > 1(phosphate) > 2(phosphate) > 5(phosphate)
O[P](O)(=O)O[P](O)(O)=O,8.92,0:1:2:5,phosphate:phosphate:phosphate:phosphate,Hydrogen diphosphate (Pyrophosphoric acid),0:1:2:5,phosphate:phosphate:phosphate:phosphate,0(phosphate) > 1(phosphate) > 2(phosphate) > 5(phosphate)
O[P](O)(=O)O[P](O)(O)=O,7.68,0:1:2:5,phosphate:phosphate:phosphate:phosphate,Hydrogen diphosphate (Pyrophosphoric acid),0:1:2:5,phosphate:phosphate:phosphate:phosphate,0(phosphate) > 1(phosphate) > 2(phosphate) > 5(phosphate)
O[P](O)(=O)O[P](O)(O)=O,7.88,0:1:2:5,phosphate:phosphate:phosphate:phosphate,Hydrogen diphosphate (Pyrophosphoric acid),0:1:2:5,phosphate:phosphate:phosphate:phosphate,0(phosphate) > 1(phosphate) > 2(phosphate) > 5(phosphate)
O[P](O)(=O)O[P](O)(O)=O,8.65,0:1:2:5,phosphate:phosphate:phosphate:phosphate,Hydrogen diphosphate (Pyrophosphoric acid),0:1:2:5,phosphate:phosphate:phosphate:phosphate,0(phosphate) > 1(phosphate) > 2(phosphate) > 5(phosphate)
O[P](O)(=O)O[P](O)(O)=O,7.49,0:1:2:5,phosphate:phosphate:phosphate:phosphate,Hydrogen diphosphate (Pyrophosphoric acid),0:1:2:5,phosphate:phosphate:phosphate:phosphate,0(phosphate) > 1(phosphate) > 2(phosphate) > 5(phosphate)
O[P](O)(=O)O[P](O)(O)=O,7.81,0:1:2:5,phosphate:phosphate:phosphate:phosphate,Hydrogen diphosphate (Pyrophosphoric acid),0:1:2:5,phosphate:phosphate:phosphate:phosphate,0(phosphate) > 1(phosphate) > 2(phosphate) > 5(phosphate)
O[P](O)(=O)O[P](O)(O)=O,8.74,0:1:2:5,phosphate:phosphate:phosphate:phosphate,Hydrogen diphosphate (Pyrophosphoric acid),0:1:2:5,phosphate:phosphate:phosphate:phosphate,0(phosphate) > 1(phosphate) > 2(phosphate) > 5(phosphate)
O[P](O)(=O)O[P](O)(O)=O,7.32,0:1:2:5,phosphate:phosphate:phosphate:phosphate,Hydrogen diphosphate (Pyrophosphoric acid),0:1:2:5,phosphate:phosphate:phosphate:phosphate,0(phosphate) > 1(phosphate) > 2(phosphate) > 5(phosphate)
O[P](O)(=O)O[P](O)(O)=O,7.71,0:1:2:5,phosphate:phosphate:phosphate:phosphate,Hydrogen diphosphate (Pyrophosphoric acid),0:1:2:5,phosphate:phosphate:phosphate:phosphate,0(phosphate) > 1(phosphate) > 2(phosphate) > 5(phosphate)
O[P](O)(=O)O[P](O)(O)=O,7.17,0:1:2:5,phosphate:phosphate:phosphate:phosphate,Hydrogen diphosphate (Pyrophosphoric acid),0:1:2:5,phosphate:phosphate:phosphate:phosphate,0(phosphate) > 1(phosphate) > 2(phosphate) > 5(phosphate)
O[P](O)(=O)O[P](O)(O)=O,7.29,0:1:2:5,phosphate:phosphate:phosphate:phosphate,Hydrogen diphosphate (Pyrophosphoric acid),0:1:2:5,phosphate:phosphate:phosphate:phosphate,0(phosphate) > 1(phosphate) > 2(phosphate) > 5(phosphate)
O[P](O)(=O)O[P](O)(O)=O,7.69,0:1:2:5,phosphate:phosphate:phosphate:phosphate,Hydrogen diphosphate (Pyrophosphoric acid),0:1:2:5,phosphate:phosphate:phosphate:phosphate,0(phosphate) > 1(phosphate) > 2(phosphate) > 5(phosphate)
O[P](O)(=O)O[P](O)(O)=O,9.4,0:1:2:5,phosphate:phosphate:phosphate:phosphate,Hydrogen diphosphate (Pyrophosphoric acid),0:1:2:5,phosphate:phosphate:phosphate:phosphate,0(phosphate) > 1(phosphate) > 2(phosphate) > 5(phosphate)
O[P](O)(=O)O[P](O)(O)=O,5.94,0:1:2:5,phosphate:phosphate:phosphate:phosphate,Hydrogen diphosphate (Pyrophosphoric acid),0:1:2:5,phosphate:phosphate:phosphate:phosphate,0(phosphate) > 1(phosphate) > 2(phosphate) > 5(phosphate)
O[P](O)(=O)O[P](O)(O)=O,6.02,0:1:2:5,phosphate:phosphate:phosphate:phosphate,Hydrogen diphosphate (Pyrophosphoric acid),0:1:2:5,phosphate:phosphate:phosphate:phosphate,0(phosphate) > 1(phosphate) > 2(phosphate) > 5(phosphate)
O[P](O)(=O)O[P](O)(O)=O,6.15,0:1:2:5,phosphate:phosphate:phosphate:phosphate,Hydrogen diphosphate (Pyrophosphoric acid),0:1:2:5,phosphate:phosphate:phosphate:phosphate,0(phosphate) > 1(phosphate) > 2(phosphate) > 5(phosphate)
O[P](O)(=O)O[P](O)(O)=O,5.57,0:1:2:5,phosphate:phosphate:phosphate:phosphate,Hydrogen diphosphate (Pyrophosphoric acid),0:1:2:5,phosphate:phosphate:phosphate:phosphate,0(phosphate) > 1(phosphate) > 2(phosphate) > 5(phosphate)
O[P](O)(=O)O[P](O)(O)=O,5.69,0:1:2:5,phosphate:phosphate:phosphate:phosphate,Hydrogen diphosphate (Pyrophosphoric acid),0:1:2:5,phosphate:phosphate:phosphate:phosphate,0(phosphate) > 1(phosphate) > 2(phosphate) > 5(phosphate)
O[P](O)(=O)O[P](O)(O)=O,6.01,0:1:2:5,phosphate:phosphate:phosphate:phosphate,Hydrogen diphosphate (Pyrophosphoric acid),0:1:2:5,phosphate:phosphate:phosphate:phosphate,0(phosphate) > 1(phosphate) > 2(phosphate) > 5(phosphate)
O[P](O)(=O)O[P](O)(O)=O,5.41,0:1:2:5,phosphate:phosphate:phosphate:phosphate,Hydrogen diphosphate (Pyrophosphoric acid),0:1:2:5,phosphate:phosphate:phosphate:phosphate,0(phosphate) > 1(phosphate) > 2(phosphate) > 5(phosphate)
O[P](O)(=O)O[P](O)(O)=O,5.59,0:1:2:5,phosphate:phosphate:phosphate:phosphate,Hydrogen diphosphate (Pyrophosphoric acid),0:1:2:5,phosphate:phosphate:phosphate:phosphate,0(phosphate) > 1(phosphate) > 2(phosphate) > 5(phosphate)
O[P](O)(=O)O[P](O)(O)=O,6.06,0:1:2:5,phosphate:phosphate:phosphate:phosphate,Hydrogen diphosphate (Pyrophosphoric acid),0:1:2:5,phosphate:phosphate:phosphate:phosphate,0(phosphate) > 1(phosphate) > 2(phosphate) > 5(phosphate)
O[P](O)(=O)O[P](O)(O)=O,5.37,0:1:2:5,phosphate:phosphate:phosphate:phosphate,Hydrogen diphosphate (Pyrophosphoric acid),0:1:2:5,phosphate:phosphate:phosphate:phosphate,0(phosphate) > 1(phosphate) > 2(phosphate) > 5(phosphate)
O[P](O)(=O)O[P](O)(O)=O,5.58,0:1:2:5,phosphate:phosphate:phosphate:phosphate,Hydrogen diphosphate (Pyrophosphoric acid),0:1:2:5,phosphate:phosphate:phosphate:phosphate,0(phosphate) > 1(phosphate) > 2(phosphate) > 5(phosphate)
O[P](O)(=O)O[P](O)(O)=O,5.29,0:1:2:5,phosphate:phosphate:phosphate:phosphate,Hydrogen diphosphate (Pyrophosphoric acid),0:1:2:5,phosphate:phosphate:phosphate:phosphate,0(phosphate) > 1(phosphate) > 2(phosphate) > 5(phosphate)
O[P](O)(=O)O[P](O)(O)=O,5.39,0:1:2:5,phosphate:phosphate:phosphate:phosphate,Hydrogen diphosphate (Pyrophosphoric acid),0:1:2:5,phosphate:phosphate:phosphate:phosphate,0(phosphate) > 1(phosphate) > 2(phosphate) > 5(phosphate)
O[P](O)(=O)O[P](O)(O)=O,6.7,0:1:2:5,phosphate:phosphate:phosphate:phosphate,Hydrogen diphosphate (Pyrophosphoric acid),0:1:2:5,phosphate:phosphate:phosphate:phosphate,0(phosphate) > 1(phosphate) > 2(phosphate) > 5(phosphate)
O[P](O)(=O)O[P](O)(O)=O,1.9,0:1:2:5,phosphate:phosphate:phosphate:phosphate,Hydrogen diphosphate (Pyrophosphoric acid),0:1:2:5,phosphate:phosphate:phosphate:phosphate,0(phosphate) > 1(phosphate) > 2(phosphate) > 5(phosphate)
O[P](O)(=O)O[P](O)(O)=O,1.5,0:1:2:5,phosphate:phosphate:phosphate:phosphate,Hydrogen diphosphate (Pyrophosphoric acid),0:1:2:5,phosphate:phosphate:phosphate:phosphate,0(phosphate) > 1(phosphate) > 2(phosphate) > 5(phosphate)
O[P](O)(=O)O[P](O)(O)=O,1.4,0:1:2:5,phosphate:phosphate:phosphate:phosphate,Hydrogen diphosphate (Pyrophosphoric acid),0:1:2:5,phosphate:phosphate:phosphate:phosphate,0(phosphate) > 1(phosphate) > 2(phosphate) > 5(phosphate)
O[P](O)(=O)O[P](O)(O)=O,2.28,0:1:2:5,phosphate:phosphate:phosphate:phosphate,Hydrogen diphosphate (Pyrophosphoric acid),0:1:2:5,phosphate:phosphate:phosphate:phosphate,0(phosphate) > 1(phosphate) > 2(phosphate) > 5(phosphate)
O[P](O)(=O)O[P](O)(O)=O,0.8,0:1:2:5,phosphate:phosphate:phosphate:phosphate,Hydrogen diphosphate (Pyrophosphoric acid),0:1:2:5,phosphate:phosphate:phosphate:phosphate,0(phosphate) > 1(phosphate) > 2(phosphate) > 5(phosphate)
O[P](O)(=O)O[P](O)(O)=O,0.7,0:1:2:5,phosphate:phosphate:phosphate:phosphate,Hydrogen diphosphate (Pyrophosphoric acid),0:1:2:5,phosphate:phosphate:phosphate:phosphate,0(phosphate) > 1(phosphate) > 2(phosphate) > 5(phosphate)
O[P](O)(=O)O[P](O)(O)=O,0.9,0:1:2:5,phosphate:phosphate:phosphate:phosphate,Hydrogen diphosphate (Pyrophosphoric acid),0:1:2:5,phosphate:phosphate:phosphate:phosphate,0(phosphate) > 1(phosphate) > 2(phosphate) > 5(phosphate)
O[P](O)(=O)O[P](O)(=O)O[P](O)(=O)O[P](O)(O)=O,7.43,0:1:2:5,phosphate:phosphate:phosphate:phosphate,Hydrogen tetraphosphate (Tetraphosphoric acid),0:1:2:5,phosphate:phosphate:phosphate:phosphate,0(phosphate) > 1(phosphate) > 2(phosphate) > 5(phosphate)
O[P](O)(=O)O[P](O)(=O)O[P](O)(=O)O[P](O)(O)=O,8.4,0:1:2:5,phosphate:phosphate:phosphate:phosphate,Hydrogen tetraphosphate (Tetraphosphoric acid),0:1:2:5,phosphate:phosphate:phosphate:phosphate,0(phosphate) > 1(phosphate) > 2(phosphate) > 5(phosphate)
O[P](O)(=O)O[P](O)(=O)O[P](O)(=O)O[P](O)(O)=O,6.36,0:1:2:5,phosphate:phosphate:phosphate:phosphate,Hydrogen tetraphosphate (Tetraphosphoric acid),0:1:2:5,phosphate:phosphate:phosphate:phosphate,0(phosphate) > 1(phosphate) > 2(phosphate) > 5(phosphate)
O[P](O)(=O)O[P](O)(=O)O[P](O)(=O)O[P](O)(O)=O,6.78,0:1:2:5,phosphate:phosphate:phosphate:phosphate,Hydrogen tetraphosphate (Tetraphosphoric acid),0:1:2:5,phosphate:phosphate:phosphate:phosphate,0(phosphate) > 1(phosphate) > 2(phosphate) > 5(phosphate)
O[P](O)(=O)O[P](O)(=O)O[P](O)(=O)O[P](O)(O)=O,8.18,0:1:2:5,phosphate:phosphate:phosphate:phosphate,Hydrogen tetraphosphate (Tetraphosphoric acid),0:1:2:5,phosphate:phosphate:phosphate:phosphate,0(phosphate) > 1(phosphate) > 2(phosphate) > 5(phosphate)
O[P](O)(=O)O[P](O)(=O)O[P](O)(=O)O[P](O)(O)=O,9.11,0:1:2:5,phosphate:phosphate:phosphate:phosphate,Hydrogen tetraphosphate (Tetraphosphoric acid),0:1:2:5,phosphate:phosphate:phosphate:phosphate,0(phosphate) > 1(phosphate) > 2(phosphate) > 5(phosphate)
O[P](O)(=O)O[P](O)(=O)O[P](O)(=O)O[P](O)(O)=O,5.84,0:1:2:5,phosphate:phosphate:phosphate:phosphate,Hydrogen tetraphosphate (Tetraphosphoric acid),0:1:2:5,phosphate:phosphate:phosphate:phosphate,0(phosphate) > 1(phosphate) > 2(phosphate) > 5(phosphate)
O[P](O)(=O)O[P](O)(=O)O[P](O)(=O)O[P](O)(O)=O,6.54,0:1:2:5,phosphate:phosphate:phosphate:phosphate,Hydrogen tetraphosphate (Tetraphosphoric acid),0:1:2:5,phosphate:phosphate:phosphate:phosphate,0(phosphate) > 1(phosphate) > 2(phosphate) > 5(phosphate)
O[P](O)(=O)O[P](O)(=O)O[P](O)(=O)O[P](O)(O)=O,4.82,0:1:2:5,phosphate:phosphate:phosphate:phosphate,Hydrogen tetraphosphate (Tetraphosphoric acid),0:1:2:5,phosphate:phosphate:phosphate:phosphate,0(phosphate) > 1(phosphate) > 2(phosphate) > 5(phosphate)
O[P](O)(=O)O[P](O)(=O)O[P](O)(=O)O[P](O)(O)=O,5.08,0:1:2:5,phosphate:phosphate:phosphate:phosphate,Hydrogen tetraphosphate (Tetraphosphoric acid),0:1:2:5,phosphate:phosphate:phosphate:phosphate,0(phosphate) > 1(phosphate) > 2(phosphate) > 5(phosphate)
O[P](O)(=O)O[P](O)(=O)O[P](O)(=O)O[P](O)(O)=O,6.49,0:1:2:5,phosphate:phosphate:phosphate:phosphate,Hydrogen tetraphosphate (Tetraphosphoric acid),0:1:2:5,phosphate:phosphate:phosphate:phosphate,0(phosphate) > 1(phosphate) > 2(phosphate) > 5(phosphate)
O[P](O)(=O)O[P](O)(=O)O[P](O)(=O)O[P](O)(O)=O,7.38,0:1:2:5,phosphate:phosphate:phosphate:phosphate,Hydrogen tetraphosphate (Tetraphosphoric acid),0:1:2:5,phosphate:phosphate:phosphate:phosphate,0(phosphate) > 1(phosphate) > 2(phosphate) > 5(phosphate)
O[P](O)(=O)O[P](O)(=O)O[P](O)(=O)O[P](O)(O)=O,1.2,0:1:2:5,phosphate:phosphate:phosphate:phosphate,Hydrogen tetraphosphate (Tetraphosphoric acid),0:1:2:5,phosphate:phosphate:phosphate:phosphate,0(phosphate) > 1(phosphate) > 2(phosphate) > 5(phosphate)
O[P](O)(=O)O[P](O)(=O)O[P](O)(=O)O[P](O)(O)=O,2.09,0:1:2:5,phosphate:phosphate:phosphate:phosphate,Hydrogen tetraphosphate (Tetraphosphoric acid),0:1:2:5,phosphate:phosphate:phosphate:phosphate,0(phosphate) > 1(phosphate) > 2(phosphate) > 5(phosphate)