SMILES,pKa,Dissociable_Atoms,Functional_Group,Name,Equilibrium,Ionic,Temperature,Dissociable_Atoms_Ordered,Functional_Group_Ordered,Dissociation_Order,Dissociating_Group,Functional_Group_pKa_Ranges
O=C1NCCNCCCNCCNC(=O)C1CCc2ccccn2,9.37,2:5:9,amine_secondary:amine_secondary:amine_secondary,"5,7-Dioxo-6-[2-(2-pyridyl)ethyl]-1,4,8,11-tetraazacyclotetradecane",[HL]/[L][H],0.1,35.0,2:5:9,amine_secondary:amine_secondary:amine_secondary,2(amine_secondary) > 5(amine_secondary) > 9(amine_secondary),amine_secondary,amine_secondary(9.5~11.5); amine_secondary(9.5~11.5); amine_secondary(9.5~11.5)
O=C1NCCNCCCNCCNC(=O)C1CCc2ccccn2,5.89,2:5:9,amine_secondary:amine_secondary:amine_secondary,"5,7-Dioxo-6-[2-(2-pyridyl)ethyl]-1,4,8,11-tetraazacyclotetradecane",[H₂L]/[HL][H],0.1,25.0,2:5:9,amine_secondary:amine_secondary:amine_secondary,2(amine_secondary) > 5(amine_secondary) > 9(amine_secondary),amine_secondary,amine_secondary(9.5~11.5); amine_secondary(9.5~11.5); amine_secondary(9.5~11.5)
O=C1NCCNCCCNCCNC(=O)C1CCc2ccccn2,5.68,2:5:9,amine_secondary:amine_secondary:amine_secondary,"5,7-Dioxo-6-[2-(2-pyridyl)ethyl]-1,4,8,11-tetraazacyclotetradecane",[H₂L]/[HL][H],0.1,35.0,2:5:9,amine_secondary:amine_secondary:amine_secondary,2(amine_secondary) > 5(amine_secondary) > 9(amine_secondary),amine_secondary,amine_secondary(9.5~11.5); amine_secondary(9.5~11.5); amine_secondary(9.5~11.5)
O=C1NCCNCCCNCCNC(=O)C1CCc2ccccn2,4.07,2:5:9,amine_secondary:amine_secondary:amine_secondary,"5,7-Dioxo-6-[2-(2-pyridyl)ethyl]-1,4,8,11-tetraazacyclotetradecane",[H₃L]/[H₂L][H],0.1,25.0,2:5:9,amine_secondary:amine_secondary:amine_secondary,2(amine_secondary) > 5(amine_secondary) > 9(amine_secondary),amine_secondary,amine_secondary(9.5~11.5); amine_secondary(9.5~11.5); amine_secondary(9.5~11.5)
O=C1NCCNCCCNCCNC(=O)C1CCc2ccccn2,4.86,2:5:9,amine_secondary:amine_secondary:amine_secondary,"5,7-Dioxo-6-[2-(2-pyridyl)ethyl]-1,4,8,11-tetraazacyclotetradecane",[H₃L]/[H₂L][H],0.1,35.0,2:5:9,amine_secondary:amine_secondary:amine_secondary,2(amine_secondary) > 5(amine_secondary) > 9(amine_secondary),amine_secondary,amine_secondary(9.5~11.5); amine_secondary(9.5~11.5); amine_secondary(9.5~11.5)
[O-][NH+]1CCCNCCNC(=O)C(CCc2ccccn2)C(=O)NCC1,9.33,1:5,amine_secondary:amine_secondary,"5,7-Dioxo-6-[2-(2-pyridyl)ethyl]-1,4,8,11-tetraazacyclotetradecane-N-oxide",[HL]/[L][H],0.1,25.0,1:5,amine_secondary:amine_secondary,1(amine_secondary) > 5(amine_secondary),amine_secondary,amine_secondary(9.5~11.5); amine_secondary(9.5~11.5)
[O-][NH+]1CCCNCCNC(=O)C(CCc2ccccn2)C(=O)NCC1,5.22,1:5,amine_secondary:amine_secondary,"5,7-Dioxo-6-[2-(2-pyridyl)ethyl]-1,4,8,11-tetraazacyclotetradecane-N-oxide",[H₂L]/[HL][H],0.1,25.0,1:5,amine_secondary:amine_secondary,1(amine_secondary) > 5(amine_secondary),amine_secondary,amine_secondary(9.5~11.5); amine_secondary(9.5~11.5)
O=C1CC(=O)NCCN(CCCN(CCN1)CCC#N)CCC#N,5.94,5:15,amine_secondary:amine_secondary,"1,11-Bis(2-cyanoethyl)-5,7-dioxo-1,4,8,11-tetraazacyclotetradecane",[HL]/[L][H],0.1,25.0,5:15,amine_secondary:amine_secondary,5(amine_secondary) > 15(amine_secondary),amine_secondary,amine_secondary(9.5~11.5); amine_secondary(9.5~11.5)
O=C1CC(=O)NCCN(CCCN(CCN1)CCC#N)CCC#N,3.05,5:15,amine_secondary:amine_secondary,"1,11-Bis(2-cyanoethyl)-5,7-dioxo-1,4,8,11-tetraazacyclotetradecane",[H₂L]/[HL][H],0.1,25.0,5:15,amine_secondary:amine_secondary,5(amine_secondary) > 15(amine_secondary),amine_secondary,amine_secondary(9.5~11.5); amine_secondary(9.5~11.5)
O=C1CCNCCNC(=O)CC(=O)NCCN1,8.26,4,amine_secondary,"5,7,14-Trioxo-1,4,8,11-tetraazacyclotetradecane",[HL]/[L][H],0.1,25.0,4,amine_secondary,4(amine_secondary),amine_secondary,amine_secondary(9.5~11.5)
O=C1CCNCCNC(=O)CC(=O)NCCN1,7.95,4,amine_secondary,"5,7,14-Trioxo-1,4,8,11-tetraazacyclotetradecane",[HL]/[L][H],0.1,35.0,4,amine_secondary,4(amine_secondary),amine_secondary,amine_secondary(9.5~11.5)
O=C1CC(=O)NCCCNCCNCCCN1,9.28,5:9,amine_secondary:amine_secondary,"9,11-Dioxo-1,4,8,12-tetraazacyclopentadecane",[HL]/[L][H],0.1,25.0,5:9,amine_secondary:amine_secondary,5(amine_secondary) > 9(amine_secondary),amine_secondary,amine_secondary(9.5~11.5); amine_secondary(9.5~11.5)
O=C1CC(=O)NCCCNCCNCCCN1,6.4,5:9,amine_secondary:amine_secondary,"9,11-Dioxo-1,4,8,12-tetraazacyclopentadecane",[H₂L]/[HL][H],0.1,25.0,5:9,amine_secondary:amine_secondary,5(amine_secondary) > 9(amine_secondary),amine_secondary,amine_secondary(9.5~11.5); amine_secondary(9.5~11.5)
O=C1NCCCNCCNCCCNC(=O)C1CCc2ccccc2,9.27,2:6,amine_secondary:amine_secondary,"9,11-Dioxo-10-(2-phenylethyl)-1,4,8,12-tetraazacyclopentadecane",[HL]/[L][H],0.1,25.0,2:6,amine_secondary:amine_secondary,2(amine_secondary) > 6(amine_secondary),amine_secondary,amine_secondary(9.5~11.5); amine_secondary(9.5~11.5)
O=C1NCCCNCCNCCCNC(=O)C1CCc2ccccc2,6.21,2:6,amine_secondary:amine_secondary,"9,11-Dioxo-10-(2-phenylethyl)-1,4,8,12-tetraazacyclopentadecane",[H₂L]/[HL][H],0.1,25.0,2:6,amine_secondary:amine_secondary,2(amine_secondary) > 6(amine_secondary),amine_secondary,amine_secondary(9.5~11.5); amine_secondary(9.5~11.5)
O=C1NCCCNCCNCCCNC(=O)C1CCc2ccccn2,9.32,2:6:9,amine_secondary:amine_secondary:amine_secondary,"9,11-Dioxo-10-[2-(2-pyridyl)ethyl]-1,4,8,12-tetraazacyclopentadecane",[HL]/[L][H],0.1,25.0,2:6:9,amine_secondary:amine_secondary:amine_secondary,2(amine_secondary) > 6(amine_secondary) > 9(amine_secondary),amine_secondary,amine_secondary(9.5~11.5); amine_secondary(9.5~11.5); amine_secondary(9.5~11.5)
O=C1NCCCNCCNCCCNC(=O)C1CCc2ccccn2,6.33,2:6:9,amine_secondary:amine_secondary:amine_secondary,"9,11-Dioxo-10-[2-(2-pyridyl)ethyl]-1,4,8,12-tetraazacyclopentadecane",[H₂L]/[HL][H],0.1,25.0,2:6:9,amine_secondary:amine_secondary:amine_secondary,2(amine_secondary) > 6(amine_secondary) > 9(amine_secondary),amine_secondary,amine_secondary(9.5~11.5); amine_secondary(9.5~11.5); amine_secondary(9.5~11.5)
O=C1NCCCNCCNCCCNC(=O)C1CCc2ccccn2,5.23,2:6:9,amine_secondary:amine_secondary:amine_secondary,"9,11-Dioxo-10-[2-(2-pyridyl)ethyl]-1,4,8,12-tetraazacyclopentadecane",[H₃L]/[H₂L][H],0.1,25.0,2:6:9,amine_secondary:amine_secondary:amine_secondary,2(amine_secondary) > 6(amine_secondary) > 9(amine_secondary),amine_secondary,amine_secondary(9.5~11.5); amine_secondary(9.5~11.5); amine_secondary(9.5~11.5)
O=C1CC(=O)NCCCNCCCNCCCN1,9.58,5:9,amine_secondary:amine_secondary,"2,4-Dioxo-1,5,9,13-tetraazacyclohexadecane",[HL]/[L][H],0.1,25.0,5:9,amine_secondary:amine_secondary,5(amine_secondary) > 9(amine_secondary),amine_secondary,amine_secondary(9.5~11.5); amine_secondary(9.5~11.5)
O=C1CC(=O)NCCCNCCCNCCCN1,7.93,5:9,amine_secondary:amine_secondary,"2,4-Dioxo-1,5,9,13-tetraazacyclohexadecane",[H₂L]/[HL][H],0.1,25.0,5:9,amine_secondary:amine_secondary,5(amine_secondary) > 9(amine_secondary),amine_secondary,amine_secondary(9.5~11.5); amine_secondary(9.5~11.5)
O=C1CC(=O)NCCNCCCCCNCCN1,10.3,5:8,amine_secondary:amine_secondary,"5,7-Dioxo-1,4,8,11-tetraazacyclohexadecane",[HL]/[L][H],0.1,35.0,5:8,amine_secondary:amine_secondary,5(amine_secondary) > 8(amine_secondary),amine_secondary,amine_secondary(9.5~11.5); amine_secondary(9.5~11.5)
O=C1CC(=O)NCCNCCCCCNCCN1,8.53,5:8,amine_secondary:amine_secondary,"5,7-Dioxo-1,4,8,11-tetraazacyclohexadecane",[H₂L]/[HL][H],0.1,35.0,5:8,amine_secondary:amine_secondary,5(amine_secondary) > 8(amine_secondary),amine_secondary,amine_secondary(9.5~11.5); amine_secondary(9.5~11.5)
ON1CCOCCOCCN(O)C(=O)CCNCCOCCOCCNCCC1=O,9.86,0:11:16:25,alcohol:alcohol:amine_secondary:amine_secondary,"7,24-Dihydroxy-8,23-dioxo-1,4,14,17-tetraoxa-7,11,20,24-tetraazacyclohexacosane",[HL]/[L][H],0.1,25.0,16:25:0:11,amine_secondary:amine_secondary:alcohol:alcohol,16(amine_secondary) > 25(amine_secondary) > 0(alcohol) > 11(alcohol),amine_secondary,alcohol(15.0~18.0); alcohol(15.0~18.0); amine_secondary(9.5~11.5); amine_secondary(9.5~11.5)
ON1CCOCCOCCN(O)C(=O)CCNCCOCCOCCNCCC1=O,9.21,0:11:16:25,alcohol:alcohol:amine_secondary:amine_secondary,"7,24-Dihydroxy-8,23-dioxo-1,4,14,17-tetraoxa-7,11,20,24-tetraazacyclohexacosane",[H₂L]/[HL][H],0.1,25.0,16:25:0:11,amine_secondary:amine_secondary:alcohol:alcohol,16(amine_secondary) > 25(amine_secondary) > 0(alcohol) > 11(alcohol),amine_secondary,alcohol(15.0~18.0); alcohol(15.0~18.0); amine_secondary(9.5~11.5); amine_secondary(9.5~11.5)
ON1CCOCCOCCN(O)C(=O)CCNCCOCCOCCNCCC1=O,7.7,0:11:16:25,alcohol:alcohol:amine_secondary:amine_secondary,"7,24-Dihydroxy-8,23-dioxo-1,4,14,17-tetraoxa-7,11,20,24-tetraazacyclohexacosane",[H₃L]/[H₂L][H],0.1,25.0,16:25:0:11,amine_secondary:amine_secondary:alcohol:alcohol,16(amine_secondary) > 25(amine_secondary) > 0(alcohol) > 11(alcohol),amine_secondary,alcohol(15.0~18.0); alcohol(15.0~18.0); amine_secondary(9.5~11.5); amine_secondary(9.5~11.5)
ON1CCOCCOCCN(O)C(=O)CCNCCOCCOCCNCCC1=O,4.14,0:11:16:25,alcohol:alcohol:amine_secondary:amine_secondary,"7,24-Dihydroxy-8,23-dioxo-1,4,14,17-tetraoxa-7,11,20,24-tetraazacyclohexacosane",[H₄L]/[H₃L][H],0.1,25.0,16:25:0:11,amine_secondary:amine_secondary:alcohol:alcohol,16(amine_secondary) > 25(amine_secondary) > 0(alcohol) > 11(alcohol),amine_secondary,alcohol(15.0~18.0); alcohol(15.0~18.0); amine_secondary(9.5~11.5); amine_secondary(9.5~11.5)
O=C1CCNCCNCCNCCNCCN1,9.88,4:7:10:13,amine_secondary:amine_secondary:amine_secondary:amine_secondary,"14-Oxo-1,4,7,10,13-pentaazacyclohexadecane",[HL]/[L][H],0.1,25.0,4:7:10:13,amine_secondary:amine_secondary:amine_secondary:amine_secondary,4(amine_secondary) > 7(amine_secondary) > 10(amine_secondary) > 13(amine_secondary),amine_secondary,amine_secondary(9.5~11.5); amine_secondary(9.5~11.5); amine_secondary(9.5~11.5); amine_secondary(9.5~11.5)
O=C1CCNCCNCCNCCNCCN1,9.56,4:7:10:13,amine_secondary:amine_secondary:amine_secondary:amine_secondary,"14-Oxo-1,4,7,10,13-pentaazacyclohexadecane",[HL]/[L][H],0.1,35.0,4:7:10:13,amine_secondary:amine_secondary:amine_secondary:amine_secondary,4(amine_secondary) > 7(amine_secondary) > 10(amine_secondary) > 13(amine_secondary),amine_secondary,amine_secondary(9.5~11.5); amine_secondary(9.5~11.5); amine_secondary(9.5~11.5); amine_secondary(9.5~11.5)
O=C1CCNCCNCCNCCNCCN1,8.92,4:7:10:13,amine_secondary:amine_secondary:amine_secondary:amine_secondary,"14-Oxo-1,4,7,10,13-pentaazacyclohexadecane",[H₂L]/[HL][H],0.1,25.0,4:7:10:13,amine_secondary:amine_secondary:amine_secondary:amine_secondary,4(amine_secondary) > 7(amine_secondary) > 10(amine_secondary) > 13(amine_secondary),amine_secondary,amine_secondary(9.5~11.5); amine_secondary(9.5~11.5); amine_secondary(9.5~11.5); amine_secondary(9.5~11.5)
O=C1CCNCCNCCNCCNCCN1,8.53,4:7:10:13,amine_secondary:amine_secondary:amine_secondary:amine_secondary,"14-Oxo-1,4,7,10,13-pentaazacyclohexadecane",[H₂L]/[HL][H],0.1,35.0,4:7:10:13,amine_secondary:amine_secondary:amine_secondary:amine_secondary,4(amine_secondary) > 7(amine_secondary) > 10(amine_secondary) > 13(amine_secondary),amine_secondary,amine_secondary(9.5~11.5); amine_secondary(9.5~11.5); amine_secondary(9.5~11.5); amine_secondary(9.5~11.5)
O=C1CCNCCNCCNCCNCCN1,5.85,4:7:10:13,amine_secondary:amine_secondary:amine_secondary:amine_secondary,"14-Oxo-1,4,7,10,13-pentaazacyclohexadecane",[H₃L]/[H₂L][H],0.1,25.0,4:7:10:13,amine_secondary:amine_secondary:amine_secondary:amine_secondary,4(amine_secondary) > 7(amine_secondary) > 10(amine_secondary) > 13(amine_secondary),amine_secondary,amine_secondary(9.5~11.5); amine_secondary(9.5~11.5); amine_secondary(9.5~11.5); amine_secondary(9.5~11.5)
O=C1CCNCCNCCNCCNCCN1,5.59,4:7:10:13,amine_secondary:amine_secondary:amine_secondary:amine_secondary,"14-Oxo-1,4,7,10,13-pentaazacyclohexadecane",[H₃L]/[H₂L][H],0.1,35.0,4:7:10:13,amine_secondary:amine_secondary:amine_secondary:amine_secondary,4(amine_secondary) > 7(amine_secondary) > 10(amine_secondary) > 13(amine_secondary),amine_secondary,amine_secondary(9.5~11.5); amine_secondary(9.5~11.5); amine_secondary(9.5~11.5); amine_secondary(9.5~11.5)
O=C1CCNCCNCCNCCNCCN1,2.4,4:7:10:13,amine_secondary:amine_secondary:amine_secondary:amine_secondary,"14-Oxo-1,4,7,10,13-pentaazacyclohexadecane",[H₄L]/[H₃L][H],0.1,25.0,4:7:10:13,amine_secondary:amine_secondary:amine_secondary:amine_secondary,4(amine_secondary) > 7(amine_secondary) > 10(amine_secondary) > 13(amine_secondary),amine_secondary,amine_secondary(9.5~11.5); amine_secondary(9.5~11.5); amine_secondary(9.5~11.5); amine_secondary(9.5~11.5)
O=C1CNCC(=O)NCCNCCNCCN1,8.94,3:7:10,amine_secondary:amine_secondary:amine_secondary,"2,6-Dioxo-1,4,7,10,13-pentaazacyclopentadecane",[HL]/[L][H],0.1,25.0,3:7:10,amine_secondary:amine_secondary:amine_secondary,3(amine_secondary) > 7(amine_secondary) > 10(amine_secondary),amine_secondary,amine_secondary(9.5~11.5); amine_secondary(9.5~11.5); amine_secondary(9.5~11.5)
O=C1CNCC(=O)NCCNCCNCCN1,5.03,3:7:10,amine_secondary:amine_secondary:amine_secondary,"2,6-Dioxo-1,4,7,10,13-pentaazacyclopentadecane",[H₂L]/[HL][H],0.1,25.0,3:7:10,amine_secondary:amine_secondary:amine_secondary,3(amine_secondary) > 7(amine_secondary) > 10(amine_secondary),amine_secondary,amine_secondary(9.5~11.5); amine_secondary(9.5~11.5); amine_secondary(9.5~11.5)
O=C1CNCC(=O)NCCNCCNCCN1,4.22,3:7:10,amine_secondary:amine_secondary:amine_secondary,"2,6-Dioxo-1,4,7,10,13-pentaazacyclopentadecane",[H₃L]/[H₂L][H],0.1,25.0,3:7:10,amine_secondary:amine_secondary:amine_secondary,3(amine_secondary) > 7(amine_secondary) > 10(amine_secondary),amine_secondary,amine_secondary(9.5~11.5); amine_secondary(9.5~11.5); amine_secondary(9.5~11.5)
O=C1CNCC(=O)NCCCNCCNCCCN1,9.41,3:7:11,amine_secondary:amine_secondary:amine_secondary,"2,6-Dioxo-1,4,7,11,14-pentaazacycloheptadecane",[HL]/[L][H],0.1,25.0,3:7:11,amine_secondary:amine_secondary:amine_secondary,3(amine_secondary) > 7(amine_secondary) > 11(amine_secondary),amine_secondary,amine_secondary(9.5~11.5); amine_secondary(9.5~11.5); amine_secondary(9.5~11.5)
O=C1CNCC(=O)NCCCNCCNCCCN1,6.39,3:7:11,amine_secondary:amine_secondary:amine_secondary,"2,6-Dioxo-1,4,7,11,14-pentaazacycloheptadecane",[H₂L]/[HL][H],0.1,25.0,3:7:11,amine_secondary:amine_secondary:amine_secondary,3(amine_secondary) > 7(amine_secondary) > 11(amine_secondary),amine_secondary,amine_secondary(9.5~11.5); amine_secondary(9.5~11.5); amine_secondary(9.5~11.5)
O=C1CNCC(=O)NCCCNCCNCCCN1,5.1,3:7:11,amine_secondary:amine_secondary:amine_secondary,"2,6-Dioxo-1,4,7,11,14-pentaazacycloheptadecane",[H₃L]/[H₂L][H],0.1,25.0,3:7:11,amine_secondary:amine_secondary:amine_secondary,3(amine_secondary) > 7(amine_secondary) > 11(amine_secondary),amine_secondary,amine_secondary(9.5~11.5); amine_secondary(9.5~11.5); amine_secondary(9.5~11.5)
O=C1CC(=O)NCCNCCNCCNCCN1,9.4,5:8:11,amine_secondary:amine_secondary:amine_secondary,"14,16-Dioxo-1,4,7,10,13-pentaazacyclohexadecane",[HL]/[L][H],0.1,25.0,5:8:11,amine_secondary:amine_secondary:amine_secondary,5(amine_secondary) > 8(amine_secondary) > 11(amine_secondary),amine_secondary,amine_secondary(9.5~11.5); amine_secondary(9.5~11.5); amine_secondary(9.5~11.5)
O=C1CC(=O)NCCNCCNCCNCCN1,8.89,5:8:11,amine_secondary:amine_secondary:amine_secondary,"14,16-Dioxo-1,4,7,10,13-pentaazacyclohexadecane",[HL]/[L][H],0.1,35.0,5:8:11,amine_secondary:amine_secondary:amine_secondary,5(amine_secondary) > 8(amine_secondary) > 11(amine_secondary),amine_secondary,amine_secondary(9.5~11.5); amine_secondary(9.5~11.5); amine_secondary(9.5~11.5)
O=C1CC(=O)NCCNCCNCCNCCN1,8.22,5:8:11,amine_secondary:amine_secondary:amine_secondary,"14,16-Dioxo-1,4,7,10,13-pentaazacyclohexadecane",[H₂L]/[HL][H],0.1,25.0,5:8:11,amine_secondary:amine_secondary:amine_secondary,5(amine_secondary) > 8(amine_secondary) > 11(amine_secondary),amine_secondary,amine_secondary(9.5~11.5); amine_secondary(9.5~11.5); amine_secondary(9.5~11.5)
O=C1CC(=O)NCCNCCNCCNCCN1,8.57,5:8:11,amine_secondary:amine_secondary:amine_secondary,"14,16-Dioxo-1,4,7,10,13-pentaazacyclohexadecane",[H₂L]/[HL][H],0.1,35.0,5:8:11,amine_secondary:amine_secondary:amine_secondary,5(amine_secondary) > 8(amine_secondary) > 11(amine_secondary),amine_secondary,amine_secondary(9.5~11.5); amine_secondary(9.5~11.5); amine_secondary(9.5~11.5)
O=C1CC(=O)NCCNCCNCCNCCN1,2.29,5:8:11,amine_secondary:amine_secondary:amine_secondary,"14,16-Dioxo-1,4,7,10,13-pentaazacyclohexadecane",[H₃L]/[H₂L][H],0.1,25.0,5:8:11,amine_secondary:amine_secondary:amine_secondary,5(amine_secondary) > 8(amine_secondary) > 11(amine_secondary),amine_secondary,amine_secondary(9.5~11.5); amine_secondary(9.5~11.5); amine_secondary(9.5~11.5)
CC1C(=O)NCCNCCNCCNCCNC1=O,9.08,4:7,amine_secondary:amine_secondary,"14,16-Dioxo-15-methyl-1,4,7,10,13-pentaazacyclohexadecane",[HL]/[L][H],0.1,35.0,4:7,amine_secondary:amine_secondary,4(amine_secondary) > 7(amine_secondary),amine_secondary,amine_secondary(9.5~11.5); amine_secondary(9.5~11.5)
CC1C(=O)NCCNCCNCCNCCNC1=O,7.95,4:7,amine_secondary:amine_secondary,"14,16-Dioxo-15-methyl-1,4,7,10,13-pentaazacyclohexadecane",[H₂L]/[HL][H],0.1,35.0,4:7,amine_secondary:amine_secondary,4(amine_secondary) > 7(amine_secondary),amine_secondary,amine_secondary(9.5~11.5); amine_secondary(9.5~11.5)
CCC1C(=O)NCCNCCNCCNCCNC1=O,9.31,5:8:11,amine_secondary:amine_secondary:amine_secondary,"14,16-Dioxo-15-ethyl-1,4,7,10,13-pentaazacyclohexadecane",[HL]/[L][H],0.1,25.0,5:8:11,amine_secondary:amine_secondary:amine_secondary,5(amine_secondary) > 8(amine_secondary) > 11(amine_secondary),amine_secondary,amine_secondary(9.5~11.5); amine_secondary(9.5~11.5); amine_secondary(9.5~11.5)
CCC1C(=O)NCCNCCNCCNCCNC1=O,9.05,5:8:11,amine_secondary:amine_secondary:amine_secondary,"14,16-Dioxo-15-ethyl-1,4,7,10,13-pentaazacyclohexadecane",[HL]/[L][H],0.1,35.0,5:8:11,amine_secondary:amine_secondary:amine_secondary,5(amine_secondary) > 8(amine_secondary) > 11(amine_secondary),amine_secondary,amine_secondary(9.5~11.5); amine_secondary(9.5~11.5); amine_secondary(9.5~11.5)
CCC1C(=O)NCCNCCNCCNCCNC1=O,7.98,5:8:11,amine_secondary:amine_secondary:amine_secondary,"14,16-Dioxo-15-ethyl-1,4,7,10,13-pentaazacyclohexadecane",[H₂L]/[HL][H],0.1,25.0,5:8:11,amine_secondary:amine_secondary:amine_secondary,5(amine_secondary) > 8(amine_secondary) > 11(amine_secondary),amine_secondary,amine_secondary(9.5~11.5); amine_secondary(9.5~11.5); amine_secondary(9.5~11.5)
CCC1C(=O)NCCNCCNCCNCCNC1=O,7.88,5:8:11,amine_secondary:amine_secondary:amine_secondary,"14,16-Dioxo-15-ethyl-1,4,7,10,13-pentaazacyclohexadecane",[H₂L]/[HL][H],0.1,35.0,5:8:11,amine_secondary:amine_secondary:amine_secondary,5(amine_secondary) > 8(amine_secondary) > 11(amine_secondary),amine_secondary,amine_secondary(9.5~11.5); amine_secondary(9.5~11.5); amine_secondary(9.5~11.5)
CCC1C(=O)NCCNCCNCCNCCNC1=O,2.0,5:8:11,amine_secondary:amine_secondary:amine_secondary,"14,16-Dioxo-15-ethyl-1,4,7,10,13-pentaazacyclohexadecane",[H₃L]/[H₂L][H],0.1,25.0,5:8:11,amine_secondary:amine_secondary:amine_secondary,5(amine_secondary) > 8(amine_secondary) > 11(amine_secondary),amine_secondary,amine_secondary(9.5~11.5); amine_secondary(9.5~11.5); amine_secondary(9.5~11.5)
O=C1NCCNCCNCCNCCNC(=O)C1Cc2ccccc2,9.01,2:5:8,amine_secondary:amine_secondary:amine_secondary,"14,16-Dioxo-15-phenylmethyl-1,4,7,10,13-pentaazacyclohexadecane",[HL]/[L][H],0.1,25.0,2:5:8,amine_secondary:amine_secondary:amine_secondary,2(amine_secondary) > 5(amine_secondary) > 8(amine_secondary),amine_secondary,amine_secondary(9.5~11.5); amine_secondary(9.5~11.5); amine_secondary(9.5~11.5)
O=C1NCCNCCNCCNCCNC(=O)C1Cc2ccccc2,9.11,2:5:8,amine_secondary:amine_secondary:amine_secondary,"14,16-Dioxo-15-phenylmethyl-1,4,7,10,13-pentaazacyclohexadecane",[HL]/[L][H],0.1,35.0,2:5:8,amine_secondary:amine_secondary:amine_secondary,2(amine_secondary) > 5(amine_secondary) > 8(amine_secondary),amine_secondary,amine_secondary(9.5~11.5); amine_secondary(9.5~11.5); amine_secondary(9.5~11.5)