SMILES,pKa,Dissociable_Atoms,Functional_Group,Name,Equilibrium,Ionic,Temperature,Dissociable_Atoms_Ordered,Functional_Group_Ordered,Dissociation_Order,Dissociating_Group,Functional_Group_pKa_Ranges
NC(C(O)=O)C(O)=O,3.32,0:3:6,amine_primary:carboxylic_acid:carboxylic_acid,Aminopropanedioic acid (Aminomalonic acid),[H₂L]/[HL][H],0.0,20.0,3:6:0,carboxylic_acid:carboxylic_acid:amine_primary,3(carboxylic_acid) > 6(carboxylic_acid) > 0(amine_primary),carboxylic_acid,amine_primary(9.0~11.0); carboxylic_acid(1.5~5.0); carboxylic_acid(1.5~5.0)
NC(C(O)=O)C(O)=O,1.8,0:3:6,amine_primary:carboxylic_acid:carboxylic_acid,Aminopropanedioic acid (Aminomalonic acid),[H₃L]/[H₂L][H],0.1,25.0,3:6:0,carboxylic_acid:carboxylic_acid:amine_primary,3(carboxylic_acid) > 6(carboxylic_acid) > 0(amine_primary),carboxylic_acid,amine_primary(9.0~11.0); carboxylic_acid(1.5~5.0); carboxylic_acid(1.5~5.0)
N[C@@H](CC(O)=O)C(O)=O,9.66,0:4:8,amine_primary:carboxylic_acid:carboxylic_acid,L-Aminobutanedioic acid (Aspartic acid),[HL]/[L][H],0.1,25.0,4:8:0,carboxylic_acid:carboxylic_acid:amine_primary,4(carboxylic_acid) > 8(carboxylic_acid) > 0(amine_primary),amine_primary,amine_primary(9.0~11.0); carboxylic_acid(1.5~5.0); carboxylic_acid(1.5~5.0)
N[C@@H](CC(O)=O)C(O)=O,9.33,0:4:8,amine_primary:carboxylic_acid:carboxylic_acid,L-Aminobutanedioic acid (Aspartic acid),[HL]/[L][H],0.15,37.0,4:8:0,carboxylic_acid:carboxylic_acid:amine_primary,4(carboxylic_acid) > 8(carboxylic_acid) > 0(amine_primary),amine_primary,amine_primary(9.0~11.0); carboxylic_acid(1.5~5.0); carboxylic_acid(1.5~5.0)
N[C@@H](CC(O)=O)C(O)=O,9.58,0:4:8,amine_primary:carboxylic_acid:carboxylic_acid,L-Aminobutanedioic acid (Aspartic acid),[HL]/[L][H],0.5,25.0,4:8:0,carboxylic_acid:carboxylic_acid:amine_primary,4(carboxylic_acid) > 8(carboxylic_acid) > 0(amine_primary),amine_primary,amine_primary(9.0~11.0); carboxylic_acid(1.5~5.0); carboxylic_acid(1.5~5.0)
N[C@@H](CC(O)=O)C(O)=O,9.61,0:4:8,amine_primary:carboxylic_acid:carboxylic_acid,L-Aminobutanedioic acid (Aspartic acid),[HL]/[L][H],1.0,25.0,4:8:0,carboxylic_acid:carboxylic_acid:amine_primary,4(carboxylic_acid) > 8(carboxylic_acid) > 0(amine_primary),amine_primary,amine_primary(9.0~11.0); carboxylic_acid(1.5~5.0); carboxylic_acid(1.5~5.0)
N[C@@H](CC(O)=O)C(O)=O,9.76,0:4:8,amine_primary:carboxylic_acid:carboxylic_acid,L-Aminobutanedioic acid (Aspartic acid),[HL]/[L][H],2.0,25.0,4:8:0,carboxylic_acid:carboxylic_acid:amine_primary,4(carboxylic_acid) > 8(carboxylic_acid) > 0(amine_primary),amine_primary,amine_primary(9.0~11.0); carboxylic_acid(1.5~5.0); carboxylic_acid(1.5~5.0)
N[C@@H](CC(O)=O)C(O)=O,10.01,0:4:8,amine_primary:carboxylic_acid:carboxylic_acid,L-Aminobutanedioic acid (Aspartic acid),[HL]/[L][H],3.0,25.0,4:8:0,carboxylic_acid:carboxylic_acid:amine_primary,4(carboxylic_acid) > 8(carboxylic_acid) > 0(amine_primary),amine_primary,amine_primary(9.0~11.0); carboxylic_acid(1.5~5.0); carboxylic_acid(1.5~5.0)
N[C@@H](CC(O)=O)C(O)=O,10.002,0:4:8,amine_primary:carboxylic_acid:carboxylic_acid,L-Aminobutanedioic acid (Aspartic acid),[HL]/[L][H],0.0,25.0,4:8:0,carboxylic_acid:carboxylic_acid:amine_primary,4(carboxylic_acid) > 8(carboxylic_acid) > 0(amine_primary),amine_primary,amine_primary(9.0~11.0); carboxylic_acid(1.5~5.0); carboxylic_acid(1.5~5.0)
N[C@@H](CC(O)=O)C(O)=O,3.71,0:4:8,amine_primary:carboxylic_acid:carboxylic_acid,L-Aminobutanedioic acid (Aspartic acid),[H₂L]/[HL][H],0.1,25.0,4:8:0,carboxylic_acid:carboxylic_acid:amine_primary,4(carboxylic_acid) > 8(carboxylic_acid) > 0(amine_primary),carboxylic_acid,amine_primary(9.0~11.0); carboxylic_acid(1.5~5.0); carboxylic_acid(1.5~5.0)
N[C@@H](CC(O)=O)C(O)=O,3.64,0:4:8,amine_primary:carboxylic_acid:carboxylic_acid,L-Aminobutanedioic acid (Aspartic acid),[H₂L]/[HL][H],0.15,37.0,4:8:0,carboxylic_acid:carboxylic_acid:amine_primary,4(carboxylic_acid) > 8(carboxylic_acid) > 0(amine_primary),carboxylic_acid,amine_primary(9.0~11.0); carboxylic_acid(1.5~5.0); carboxylic_acid(1.5~5.0)
N[C@@H](CC(O)=O)C(O)=O,3.68,0:4:8,amine_primary:carboxylic_acid:carboxylic_acid,L-Aminobutanedioic acid (Aspartic acid),[H₂L]/[HL][H],0.5,25.0,4:8:0,carboxylic_acid:carboxylic_acid:amine_primary,4(carboxylic_acid) > 8(carboxylic_acid) > 0(amine_primary),carboxylic_acid,amine_primary(9.0~11.0); carboxylic_acid(1.5~5.0); carboxylic_acid(1.5~5.0)
N[C@@H](CC(O)=O)C(O)=O,3.73,0:4:8,amine_primary:carboxylic_acid:carboxylic_acid,L-Aminobutanedioic acid (Aspartic acid),[H₂L]/[HL][H],1.0,25.0,4:8:0,carboxylic_acid:carboxylic_acid:amine_primary,4(carboxylic_acid) > 8(carboxylic_acid) > 0(amine_primary),carboxylic_acid,amine_primary(9.0~11.0); carboxylic_acid(1.5~5.0); carboxylic_acid(1.5~5.0)
N[C@@H](CC(O)=O)C(O)=O,3.87,0:4:8,amine_primary:carboxylic_acid:carboxylic_acid,L-Aminobutanedioic acid (Aspartic acid),[H₂L]/[HL][H],2.0,25.0,4:8:0,carboxylic_acid:carboxylic_acid:amine_primary,4(carboxylic_acid) > 8(carboxylic_acid) > 0(amine_primary),carboxylic_acid,amine_primary(9.0~11.0); carboxylic_acid(1.5~5.0); carboxylic_acid(1.5~5.0)
N[C@@H](CC(O)=O)C(O)=O,4.07,0:4:8,amine_primary:carboxylic_acid:carboxylic_acid,L-Aminobutanedioic acid (Aspartic acid),[H₂L]/[HL][H],3.0,25.0,4:8:0,carboxylic_acid:carboxylic_acid:amine_primary,4(carboxylic_acid) > 8(carboxylic_acid) > 0(amine_primary),carboxylic_acid,amine_primary(9.0~11.0); carboxylic_acid(1.5~5.0); carboxylic_acid(1.5~5.0)
N[C@@H](CC(O)=O)C(O)=O,3.9,0:4:8,amine_primary:carboxylic_acid:carboxylic_acid,L-Aminobutanedioic acid (Aspartic acid),[H₂L]/[HL][H],0.0,25.0,4:8:0,carboxylic_acid:carboxylic_acid:amine_primary,4(carboxylic_acid) > 8(carboxylic_acid) > 0(amine_primary),carboxylic_acid,amine_primary(9.0~11.0); carboxylic_acid(1.5~5.0); carboxylic_acid(1.5~5.0)
N[C@@H](CC(O)=O)C(O)=O,1.95,0:4:8,amine_primary:carboxylic_acid:carboxylic_acid,L-Aminobutanedioic acid (Aspartic acid),[H₃L]/[H₂L][H],0.1,25.0,4:8:0,carboxylic_acid:carboxylic_acid:amine_primary,4(carboxylic_acid) > 8(carboxylic_acid) > 0(amine_primary),carboxylic_acid,amine_primary(9.0~11.0); carboxylic_acid(1.5~5.0); carboxylic_acid(1.5~5.0)
N[C@@H](CC(O)=O)C(O)=O,1.94,0:4:8,amine_primary:carboxylic_acid:carboxylic_acid,L-Aminobutanedioic acid (Aspartic acid),[H₃L]/[H₂L][H],0.15,37.0,4:8:0,carboxylic_acid:carboxylic_acid:amine_primary,4(carboxylic_acid) > 8(carboxylic_acid) > 0(amine_primary),carboxylic_acid,amine_primary(9.0~11.0); carboxylic_acid(1.5~5.0); carboxylic_acid(1.5~5.0)
N[C@@H](CC(O)=O)C(O)=O,1.98,0:4:8,amine_primary:carboxylic_acid:carboxylic_acid,L-Aminobutanedioic acid (Aspartic acid),[H₃L]/[H₂L][H],0.5,25.0,4:8:0,carboxylic_acid:carboxylic_acid:amine_primary,4(carboxylic_acid) > 8(carboxylic_acid) > 0(amine_primary),carboxylic_acid,amine_primary(9.0~11.0); carboxylic_acid(1.5~5.0); carboxylic_acid(1.5~5.0)
N[C@@H](CC(O)=O)C(O)=O,2.0,0:4:8,amine_primary:carboxylic_acid:carboxylic_acid,L-Aminobutanedioic acid (Aspartic acid),[H₃L]/[H₂L][H],1.0,25.0,4:8:0,carboxylic_acid:carboxylic_acid:amine_primary,4(carboxylic_acid) > 8(carboxylic_acid) > 0(amine_primary),carboxylic_acid,amine_primary(9.0~11.0); carboxylic_acid(1.5~5.0); carboxylic_acid(1.5~5.0)
N[C@@H](CC(O)=O)C(O)=O,2.14,0:4:8,amine_primary:carboxylic_acid:carboxylic_acid,L-Aminobutanedioic acid (Aspartic acid),[H₃L]/[H₂L][H],2.0,25.0,4:8:0,carboxylic_acid:carboxylic_acid:amine_primary,4(carboxylic_acid) > 8(carboxylic_acid) > 0(amine_primary),carboxylic_acid,amine_primary(9.0~11.0); carboxylic_acid(1.5~5.0); carboxylic_acid(1.5~5.0)
N[C@@H](CC(O)=O)C(O)=O,2.35,0:4:8,amine_primary:carboxylic_acid:carboxylic_acid,L-Aminobutanedioic acid (Aspartic acid),[H₃L]/[H₂L][H],3.0,25.0,4:8:0,carboxylic_acid:carboxylic_acid:amine_primary,4(carboxylic_acid) > 8(carboxylic_acid) > 0(amine_primary),carboxylic_acid,amine_primary(9.0~11.0); carboxylic_acid(1.5~5.0); carboxylic_acid(1.5~5.0)
N[C@@H](CC(O)=O)C(O)=O,1.99,0:4:8,amine_primary:carboxylic_acid:carboxylic_acid,L-Aminobutanedioic acid (Aspartic acid),[H₃L]/[H₂L][H],0.0,25.0,4:8:0,carboxylic_acid:carboxylic_acid:amine_primary,4(carboxylic_acid) > 8(carboxylic_acid) > 0(amine_primary),carboxylic_acid,amine_primary(9.0~11.0); carboxylic_acid(1.5~5.0); carboxylic_acid(1.5~5.0)
CC([C@H](N)C(O)=O)C(O)=O,9.48,3:5:8,amine_primary:carboxylic_acid:carboxylic_acid,DL-2-Amino-3-methylbutanedioic acid (3-Methylaspartic acid),[HL]/[L][H],0.5,25.0,5:8:3,carboxylic_acid:carboxylic_acid:amine_primary,5(carboxylic_acid) > 8(carboxylic_acid) > 3(amine_primary),amine_primary,amine_primary(9.0~11.0); carboxylic_acid(1.5~5.0); carboxylic_acid(1.5~5.0)
CC([C@H](N)C(O)=O)C(O)=O,3.59,3:5:8,amine_primary:carboxylic_acid:carboxylic_acid,DL-2-Amino-3-methylbutanedioic acid (3-Methylaspartic acid),[H₂L]/[HL][H],0.5,25.0,5:8:3,carboxylic_acid:carboxylic_acid:amine_primary,5(carboxylic_acid) > 8(carboxylic_acid) > 3(amine_primary),carboxylic_acid,amine_primary(9.0~11.0); carboxylic_acid(1.5~5.0); carboxylic_acid(1.5~5.0)
CC([C@H](N)C(O)=O)C(O)=O,1.99,3:5:8,amine_primary:carboxylic_acid:carboxylic_acid,DL-2-Amino-3-methylbutanedioic acid (3-Methylaspartic acid),[H₃L]/[H₂L][H],0.5,25.0,5:8:3,carboxylic_acid:carboxylic_acid:amine_primary,5(carboxylic_acid) > 8(carboxylic_acid) > 3(amine_primary),carboxylic_acid,amine_primary(9.0~11.0); carboxylic_acid(1.5~5.0); carboxylic_acid(1.5~5.0)
N[C@@H](CCC(O)=O)C(O)=O,9.58,0:5:9,amine_primary:carboxylic_acid:carboxylic_acid,L-2-Aminopentanedioic acid (Glutamic acid),[HL]/[L][H],0.1,25.0,5:9:0,carboxylic_acid:carboxylic_acid:amine_primary,5(carboxylic_acid) > 9(carboxylic_acid) > 0(amine_primary),amine_primary,amine_primary(9.0~11.0); carboxylic_acid(1.5~5.0); carboxylic_acid(1.5~5.0)
N[C@@H](CCC(O)=O)C(O)=O,9.23,0:5:9,amine_primary:carboxylic_acid:carboxylic_acid,L-2-Aminopentanedioic acid (Glutamic acid),[HL]/[L][H],0.15,37.0,5:9:0,carboxylic_acid:carboxylic_acid:amine_primary,5(carboxylic_acid) > 9(carboxylic_acid) > 0(amine_primary),amine_primary,amine_primary(9.0~11.0); carboxylic_acid(1.5~5.0); carboxylic_acid(1.5~5.0)
N[C@@H](CCC(O)=O)C(O)=O,9.49,0:5:9,amine_primary:carboxylic_acid:carboxylic_acid,L-2-Aminopentanedioic acid (Glutamic acid),[HL]/[L][H],0.5,25.0,5:9:0,carboxylic_acid:carboxylic_acid:amine_primary,5(carboxylic_acid) > 9(carboxylic_acid) > 0(amine_primary),amine_primary,amine_primary(9.0~11.0); carboxylic_acid(1.5~5.0); carboxylic_acid(1.5~5.0)
N[C@@H](CCC(O)=O)C(O)=O,9.46,0:5:9,amine_primary:carboxylic_acid:carboxylic_acid,L-2-Aminopentanedioic acid (Glutamic acid),[HL]/[L][H],1.0,25.0,5:9:0,carboxylic_acid:carboxylic_acid:amine_primary,5(carboxylic_acid) > 9(carboxylic_acid) > 0(amine_primary),amine_primary,amine_primary(9.0~11.0); carboxylic_acid(1.5~5.0); carboxylic_acid(1.5~5.0)
N[C@@H](CCC(O)=O)C(O)=O,9.67,0:5:9,amine_primary:carboxylic_acid:carboxylic_acid,L-2-Aminopentanedioic acid (Glutamic acid),[HL]/[L][H],2.0,25.0,5:9:0,carboxylic_acid:carboxylic_acid:amine_primary,5(carboxylic_acid) > 9(carboxylic_acid) > 0(amine_primary),amine_primary,amine_primary(9.0~11.0); carboxylic_acid(1.5~5.0); carboxylic_acid(1.5~5.0)
N[C@@H](CCC(O)=O)C(O)=O,9.89,0:5:9,amine_primary:carboxylic_acid:carboxylic_acid,L-2-Aminopentanedioic acid (Glutamic acid),[HL]/[L][H],3.0,25.0,5:9:0,carboxylic_acid:carboxylic_acid:amine_primary,5(carboxylic_acid) > 9(carboxylic_acid) > 0(amine_primary),amine_primary,amine_primary(9.0~11.0); carboxylic_acid(1.5~5.0); carboxylic_acid(1.5~5.0)
N[C@@H](CCC(O)=O)C(O)=O,9.96,0:5:9,amine_primary:carboxylic_acid:carboxylic_acid,L-2-Aminopentanedioic acid (Glutamic acid),[HL]/[L][H],0.0,25.0,5:9:0,carboxylic_acid:carboxylic_acid:amine_primary,5(carboxylic_acid) > 9(carboxylic_acid) > 0(amine_primary),amine_primary,amine_primary(9.0~11.0); carboxylic_acid(1.5~5.0); carboxylic_acid(1.5~5.0)
N[C@@H](CCC(O)=O)C(O)=O,4.15,0:5:9,amine_primary:carboxylic_acid:carboxylic_acid,L-2-Aminopentanedioic acid (Glutamic acid),[H₂L]/[HL][H],0.1,25.0,5:9:0,carboxylic_acid:carboxylic_acid:amine_primary,5(carboxylic_acid) > 9(carboxylic_acid) > 0(amine_primary),carboxylic_acid,amine_primary(9.0~11.0); carboxylic_acid(1.5~5.0); carboxylic_acid(1.5~5.0)
N[C@@H](CCC(O)=O)C(O)=O,4.06,0:5:9,amine_primary:carboxylic_acid:carboxylic_acid,L-2-Aminopentanedioic acid (Glutamic acid),[H₂L]/[HL][H],0.15,37.0,5:9:0,carboxylic_acid:carboxylic_acid:amine_primary,5(carboxylic_acid) > 9(carboxylic_acid) > 0(amine_primary),carboxylic_acid,amine_primary(9.0~11.0); carboxylic_acid(1.5~5.0); carboxylic_acid(1.5~5.0)
N[C@@H](CCC(O)=O)C(O)=O,4.07,0:5:9,amine_primary:carboxylic_acid:carboxylic_acid,L-2-Aminopentanedioic acid (Glutamic acid),[H₂L]/[HL][H],0.5,25.0,5:9:0,carboxylic_acid:carboxylic_acid:amine_primary,5(carboxylic_acid) > 9(carboxylic_acid) > 0(amine_primary),carboxylic_acid,amine_primary(9.0~11.0); carboxylic_acid(1.5~5.0); carboxylic_acid(1.5~5.0)
N[C@@H](CCC(O)=O)C(O)=O,4.14,0:5:9,amine_primary:carboxylic_acid:carboxylic_acid,L-2-Aminopentanedioic acid (Glutamic acid),[H₂L]/[HL][H],1.0,25.0,5:9:0,carboxylic_acid:carboxylic_acid:amine_primary,5(carboxylic_acid) > 9(carboxylic_acid) > 0(amine_primary),carboxylic_acid,amine_primary(9.0~11.0); carboxylic_acid(1.5~5.0); carboxylic_acid(1.5~5.0)
N[C@@H](CCC(O)=O)C(O)=O,4.24,0:5:9,amine_primary:carboxylic_acid:carboxylic_acid,L-2-Aminopentanedioic acid (Glutamic acid),[H₂L]/[HL][H],2.0,25.0,5:9:0,carboxylic_acid:carboxylic_acid:amine_primary,5(carboxylic_acid) > 9(carboxylic_acid) > 0(amine_primary),carboxylic_acid,amine_primary(9.0~11.0); carboxylic_acid(1.5~5.0); carboxylic_acid(1.5~5.0)
N[C@@H](CCC(O)=O)C(O)=O,4.54,0:5:9,amine_primary:carboxylic_acid:carboxylic_acid,L-2-Aminopentanedioic acid (Glutamic acid),[H₂L]/[HL][H],3.0,25.0,5:9:0,carboxylic_acid:carboxylic_acid:amine_primary,5(carboxylic_acid) > 9(carboxylic_acid) > 0(amine_primary),carboxylic_acid,amine_primary(9.0~11.0); carboxylic_acid(1.5~5.0); carboxylic_acid(1.5~5.0)
N[C@@H](CCC(O)=O)C(O)=O,4.3,0:5:9,amine_primary:carboxylic_acid:carboxylic_acid,L-2-Aminopentanedioic acid (Glutamic acid),[H₂L]/[HL][H],0.0,25.0,5:9:0,carboxylic_acid:carboxylic_acid:amine_primary,5(carboxylic_acid) > 9(carboxylic_acid) > 0(amine_primary),carboxylic_acid,amine_primary(9.0~11.0); carboxylic_acid(1.5~5.0); carboxylic_acid(1.5~5.0)
N[C@@H](CCC(O)=O)C(O)=O,2.16,0:5:9,amine_primary:carboxylic_acid:carboxylic_acid,L-2-Aminopentanedioic acid (Glutamic acid),[H₃L]/[H₂L][H],0.1,25.0,5:9:0,carboxylic_acid:carboxylic_acid:amine_primary,5(carboxylic_acid) > 9(carboxylic_acid) > 0(amine_primary),carboxylic_acid,amine_primary(9.0~11.0); carboxylic_acid(1.5~5.0); carboxylic_acid(1.5~5.0)
N[C@@H](CCC(O)=O)C(O)=O,2.1,0:5:9,amine_primary:carboxylic_acid:carboxylic_acid,L-2-Aminopentanedioic acid (Glutamic acid),[H₃L]/[H₂L][H],0.15,37.0,5:9:0,carboxylic_acid:carboxylic_acid:amine_primary,5(carboxylic_acid) > 9(carboxylic_acid) > 0(amine_primary),carboxylic_acid,amine_primary(9.0~11.0); carboxylic_acid(1.5~5.0); carboxylic_acid(1.5~5.0)
N[C@@H](CCC(O)=O)C(O)=O,2.16,0:5:9,amine_primary:carboxylic_acid:carboxylic_acid,L-2-Aminopentanedioic acid (Glutamic acid),[H₃L]/[H₂L][H],0.5,25.0,5:9:0,carboxylic_acid:carboxylic_acid:amine_primary,5(carboxylic_acid) > 9(carboxylic_acid) > 0(amine_primary),carboxylic_acid,amine_primary(9.0~11.0); carboxylic_acid(1.5~5.0); carboxylic_acid(1.5~5.0)
N[C@@H](CCC(O)=O)C(O)=O,2.35,0:5:9,amine_primary:carboxylic_acid:carboxylic_acid,L-2-Aminopentanedioic acid (Glutamic acid),[H₃L]/[H₂L][H],1.0,25.0,5:9:0,carboxylic_acid:carboxylic_acid:amine_primary,5(carboxylic_acid) > 9(carboxylic_acid) > 0(amine_primary),carboxylic_acid,amine_primary(9.0~11.0); carboxylic_acid(1.5~5.0); carboxylic_acid(1.5~5.0)
N[C@@H](CCC(O)=O)C(O)=O,2.32,0:5:9,amine_primary:carboxylic_acid:carboxylic_acid,L-2-Aminopentanedioic acid (Glutamic acid),[H₃L]/[H₂L][H],2.0,25.0,5:9:0,carboxylic_acid:carboxylic_acid:amine_primary,5(carboxylic_acid) > 9(carboxylic_acid) > 0(amine_primary),carboxylic_acid,amine_primary(9.0~11.0); carboxylic_acid(1.5~5.0); carboxylic_acid(1.5~5.0)
N[C@@H](CCC(O)=O)C(O)=O,2.57,0:5:9,amine_primary:carboxylic_acid:carboxylic_acid,L-2-Aminopentanedioic acid (Glutamic acid),[H₃L]/[H₂L][H],3.0,25.0,5:9:0,carboxylic_acid:carboxylic_acid:amine_primary,5(carboxylic_acid) > 9(carboxylic_acid) > 0(amine_primary),carboxylic_acid,amine_primary(9.0~11.0); carboxylic_acid(1.5~5.0); carboxylic_acid(1.5~5.0)
N[C@@H](CCC(O)=O)C(O)=O,2.16,0:5:9,amine_primary:carboxylic_acid:carboxylic_acid,L-2-Aminopentanedioic acid (Glutamic acid),[H₃L]/[H₂L][H],0.0,25.0,5:9:0,carboxylic_acid:carboxylic_acid:amine_primary,5(carboxylic_acid) > 9(carboxylic_acid) > 0(amine_primary),carboxylic_acid,amine_primary(9.0~11.0); carboxylic_acid(1.5~5.0); carboxylic_acid(1.5~5.0)
C[C@](N)(CCC(O)=O)C(O)=O,9.72,6:9,carboxylic_acid:carboxylic_acid,DL-2-Amino-2-methylpentanedioic acid (2-Methylglutamic acid),[HL]/[L][H],0.1,25.0,6:9,carboxylic_acid:carboxylic_acid,6(carboxylic_acid) > 9(carboxylic_acid),carboxylic_acid,carboxylic_acid(1.5~5.0); carboxylic_acid(1.5~5.0)
C[C@](N)(CCC(O)=O)C(O)=O,4.05,6:9,carboxylic_acid:carboxylic_acid,DL-2-Amino-2-methylpentanedioic acid (2-Methylglutamic acid),[H₂L]/[HL][H],0.1,25.0,6:9,carboxylic_acid:carboxylic_acid,6(carboxylic_acid) > 9(carboxylic_acid),carboxylic_acid,carboxylic_acid(1.5~5.0); carboxylic_acid(1.5~5.0)
N[C@@H](C(O)CC(O)=O)C(O)=O,9.06,6:9:0,carboxylic_acid:carboxylic_acid:amine_primary,DL-2-Amino-3-hydroxypentanedioic acid (3-Hydroxyglutamic acid),[HL]/[L][H],0.1,25.0,6:9:0,carboxylic_acid:carboxylic_acid:amine_primary,6(carboxylic_acid) > 9(carboxylic_acid) > 0(amine_primary),amine_primary,carboxylic_acid(1.5~5.0); carboxylic_acid(1.5~5.0); amine_primary(9.0~11.0)
N[C@@H](C(O)CC(O)=O)C(O)=O,4.08,6:9:0,carboxylic_acid:carboxylic_acid:amine_primary,DL-2-Amino-3-hydroxypentanedioic acid (3-Hydroxyglutamic acid),[H₂L]/[HL][H],0.1,25.0,6:9:0,carboxylic_acid:carboxylic_acid:amine_primary,6(carboxylic_acid) > 9(carboxylic_acid) > 0(amine_primary),carboxylic_acid,carboxylic_acid(1.5~5.0); carboxylic_acid(1.5~5.0); amine_primary(9.0~11.0)
N[C@@H](C(O)CC(O)=O)C(O)=O,2.09,6:9:0,carboxylic_acid:carboxylic_acid:amine_primary,DL-2-Amino-3-hydroxypentanedioic acid (3-Hydroxyglutamic acid),[H₃L]/[H₂L][H],0.1,25.0,6:9:0,carboxylic_acid:carboxylic_acid:amine_primary,6(carboxylic_acid) > 9(carboxylic_acid) > 0(amine_primary),carboxylic_acid,carboxylic_acid(1.5~5.0); carboxylic_acid(1.5~5.0); amine_primary(9.0~11.0)
NCCCC(C(O)=O)C(O)=O,10.45,0:6:9,amine_primary:carboxylic_acid:carboxylic_acid,(3-Aminopropyl)malonic acid,[HL]/[L][H],0.1,25.0,6:9:0,carboxylic_acid:carboxylic_acid:amine_primary,6(carboxylic_acid) > 9(carboxylic_acid) > 0(amine_primary),amine_primary,amine_primary(9.0~11.0); carboxylic_acid(1.5~5.0); carboxylic_acid(1.5~5.0)
NCCCC(C(O)=O)C(O)=O,4.86,0:6:9,amine_primary:carboxylic_acid:carboxylic_acid,(3-Aminopropyl)malonic acid,[H₂L]/[HL][H],0.1,25.0,6:9:0,carboxylic_acid:carboxylic_acid:amine_primary,6(carboxylic_acid) > 9(carboxylic_acid) > 0(amine_primary),carboxylic_acid,amine_primary(9.0~11.0); carboxylic_acid(1.5~5.0); carboxylic_acid(1.5~5.0)
NCCCC(C(O)=O)C(O)=O,2.52,0:6:9,amine_primary:carboxylic_acid:carboxylic_acid,(3-Aminopropyl)malonic acid,[H₃L]/[H₂L][H],0.1,25.0,6:9:0,carboxylic_acid:carboxylic_acid:amine_primary,6(carboxylic_acid) > 9(carboxylic_acid) > 0(amine_primary),carboxylic_acid,amine_primary(9.0~11.0); carboxylic_acid(1.5~5.0); carboxylic_acid(1.5~5.0)
N[C@@H](CO[P](O)(O)=O)C(O)=O,9.8,9:0:4:5,carboxylic_acid:amine_primary:phosphate:phosphate,L-2-Amino-3-phosphopropanoic acid (Phosphoserine),[HL]/[L][H],0.1,25.0,9:0:4:5,carboxylic_acid:amine_primary:phosphate:phosphate,9(carboxylic_acid) > 0(amine_primary) > 4(phosphate) > 5(phosphate),amine_primary,"carboxylic_acid(1.5~5.0); amine_primary(9.0~11.0); phosphate(1.0~3.0, 5.0~7.0, 9.0~12.0); phosphate(1.0~3.0, 5.0~7.0, 9.0~12.0)"