SMILES,pKa,Dissociable_Atoms,Functional_Group,Name,Equilibrium,Ionic,Temperature,Dissociable_Atoms_Ordered,Functional_Group_Ordered,Dissociation_Order,Dissociating_Group,Functional_Group_pKa_Ranges
C1CNCCCNCCCNCCCNCCCNCCCNC1,7.74,2:6:10:14:18:22,amine_secondary:amine_secondary:amine_secondary:amine_secondary:amine_secondary:amine_secondary,"1,5,9,13,17,21-Hexaazacyclotetracosane",[H₅L]/[H₄L][H],1.0,25.0,2:6:10:14:18:22,amine_secondary:amine_secondary:amine_secondary:amine_secondary:amine_secondary:amine_secondary,2(amine_secondary) > 6(amine_secondary) > 10(amine_secondary) > 14(amine_secondary) > 18(amine_secondary) > 22(amine_secondary),amine_secondary,amine_secondary(9.5~11.5); amine_secondary(9.5~11.5); amine_secondary(9.5~11.5); amine_secondary(9.5~11.5); amine_secondary(9.5~11.5); amine_secondary(9.5~11.5)
C1CNCCCNCCCNCCCNCCCNCCCNC1,6.5,2:6:10:14:18:22,amine_secondary:amine_secondary:amine_secondary:amine_secondary:amine_secondary:amine_secondary,"1,5,9,13,17,21-Hexaazacyclotetracosane",[H₆L]/[H₅L][H],0.1,25.0,2:6:10:14:18:22,amine_secondary:amine_secondary:amine_secondary:amine_secondary:amine_secondary:amine_secondary,2(amine_secondary) > 6(amine_secondary) > 10(amine_secondary) > 14(amine_secondary) > 18(amine_secondary) > 22(amine_secondary),amine_secondary,amine_secondary(9.5~11.5); amine_secondary(9.5~11.5); amine_secondary(9.5~11.5); amine_secondary(9.5~11.5); amine_secondary(9.5~11.5); amine_secondary(9.5~11.5)
C1CNCCCNCCCNCCCNCCCNCCCNC1,7.05,2:6:10:14:18:22,amine_secondary:amine_secondary:amine_secondary:amine_secondary:amine_secondary:amine_secondary,"1,5,9,13,17,21-Hexaazacyclotetracosane",[H₆L]/[H₅L][H],1.0,25.0,2:6:10:14:18:22,amine_secondary:amine_secondary:amine_secondary:amine_secondary:amine_secondary:amine_secondary,2(amine_secondary) > 6(amine_secondary) > 10(amine_secondary) > 14(amine_secondary) > 18(amine_secondary) > 22(amine_secondary),amine_secondary,amine_secondary(9.5~11.5); amine_secondary(9.5~11.5); amine_secondary(9.5~11.5); amine_secondary(9.5~11.5); amine_secondary(9.5~11.5); amine_secondary(9.5~11.5)
C1CCCNCCNCCNCCCCCCNCCNCCNCC1,10.73,4:7:10:17:20:23,amine_secondary:amine_secondary:amine_secondary:amine_secondary:amine_secondary:amine_secondary,"1,4,7,14,17,20-Hexaazacyclohexacosane",[HL]/[L][H],0.5,25.0,4:7:10:17:20:23,amine_secondary:amine_secondary:amine_secondary:amine_secondary:amine_secondary:amine_secondary,4(amine_secondary) > 7(amine_secondary) > 10(amine_secondary) > 17(amine_secondary) > 20(amine_secondary) > 23(amine_secondary),amine_secondary,amine_secondary(9.5~11.5); amine_secondary(9.5~11.5); amine_secondary(9.5~11.5); amine_secondary(9.5~11.5); amine_secondary(9.5~11.5); amine_secondary(9.5~11.5)
C1CCCNCCNCCNCCCCCCNCCNCCNCC1,10.31,4:7:10:17:20:23,amine_secondary:amine_secondary:amine_secondary:amine_secondary:amine_secondary:amine_secondary,"1,4,7,14,17,20-Hexaazacyclohexacosane",[H₂L]/[HL][H],0.5,25.0,4:7:10:17:20:23,amine_secondary:amine_secondary:amine_secondary:amine_secondary:amine_secondary:amine_secondary,4(amine_secondary) > 7(amine_secondary) > 10(amine_secondary) > 17(amine_secondary) > 20(amine_secondary) > 23(amine_secondary),amine_secondary,amine_secondary(9.5~11.5); amine_secondary(9.5~11.5); amine_secondary(9.5~11.5); amine_secondary(9.5~11.5); amine_secondary(9.5~11.5); amine_secondary(9.5~11.5)
C1CCCNCCNCCNCCCCCCNCCNCCNCC1,9.93,4:7:10:17:20:23,amine_secondary:amine_secondary:amine_secondary:amine_secondary:amine_secondary:amine_secondary,"1,4,7,14,17,20-Hexaazacyclohexacosane",[H₃L]/[H₂L][H],0.5,25.0,4:7:10:17:20:23,amine_secondary:amine_secondary:amine_secondary:amine_secondary:amine_secondary:amine_secondary,4(amine_secondary) > 7(amine_secondary) > 10(amine_secondary) > 17(amine_secondary) > 20(amine_secondary) > 23(amine_secondary),amine_secondary,amine_secondary(9.5~11.5); amine_secondary(9.5~11.5); amine_secondary(9.5~11.5); amine_secondary(9.5~11.5); amine_secondary(9.5~11.5); amine_secondary(9.5~11.5)
C1CCCNCCNCCNCCCCCCNCCNCCNCC1,9.47,4:7:10:17:20:23,amine_secondary:amine_secondary:amine_secondary:amine_secondary:amine_secondary:amine_secondary,"1,4,7,14,17,20-Hexaazacyclohexacosane",[H₄L]/[H₃L][H],0.5,25.0,4:7:10:17:20:23,amine_secondary:amine_secondary:amine_secondary:amine_secondary:amine_secondary:amine_secondary,4(amine_secondary) > 7(amine_secondary) > 10(amine_secondary) > 17(amine_secondary) > 20(amine_secondary) > 23(amine_secondary),amine_secondary,amine_secondary(9.5~11.5); amine_secondary(9.5~11.5); amine_secondary(9.5~11.5); amine_secondary(9.5~11.5); amine_secondary(9.5~11.5); amine_secondary(9.5~11.5)
C1CCCNCCNCCNCCCCCCNCCNCCNCC1,3.82,4:7:10:17:20:23,amine_secondary:amine_secondary:amine_secondary:amine_secondary:amine_secondary:amine_secondary,"1,4,7,14,17,20-Hexaazacyclohexacosane",[H₅L]/[H₄L][H],0.5,25.0,4:7:10:17:20:23,amine_secondary:amine_secondary:amine_secondary:amine_secondary:amine_secondary:amine_secondary,4(amine_secondary) > 7(amine_secondary) > 10(amine_secondary) > 17(amine_secondary) > 20(amine_secondary) > 23(amine_secondary),amine_secondary,amine_secondary(9.5~11.5); amine_secondary(9.5~11.5); amine_secondary(9.5~11.5); amine_secondary(9.5~11.5); amine_secondary(9.5~11.5); amine_secondary(9.5~11.5)
C1CCCNCCNCCNCCCCCCNCCNCCNCC1,3.57,4:7:10:17:20:23,amine_secondary:amine_secondary:amine_secondary:amine_secondary:amine_secondary:amine_secondary,"1,4,7,14,17,20-Hexaazacyclohexacosane",[H₆L]/[H₅L][H],0.5,25.0,4:7:10:17:20:23,amine_secondary:amine_secondary:amine_secondary:amine_secondary:amine_secondary:amine_secondary,4(amine_secondary) > 7(amine_secondary) > 10(amine_secondary) > 17(amine_secondary) > 20(amine_secondary) > 23(amine_secondary),amine_secondary,amine_secondary(9.5~11.5); amine_secondary(9.5~11.5); amine_secondary(9.5~11.5); amine_secondary(9.5~11.5); amine_secondary(9.5~11.5); amine_secondary(9.5~11.5)
C1CCCCNCCNCCNCCCCCCCCCNCCNCCNCCCC1,9.6,5:8:11:21:24:27,amine_secondary:amine_secondary:amine_secondary:amine_secondary:amine_secondary:amine_secondary,"1,4,7,17,20,23-Hexaazacyclodotriacontane",[H₃L]/[H₂L][H],0.1,25.0,5:8:11:21:24:27,amine_secondary:amine_secondary:amine_secondary:amine_secondary:amine_secondary:amine_secondary,5(amine_secondary) > 8(amine_secondary) > 11(amine_secondary) > 21(amine_secondary) > 24(amine_secondary) > 27(amine_secondary),amine_secondary,amine_secondary(9.5~11.5); amine_secondary(9.5~11.5); amine_secondary(9.5~11.5); amine_secondary(9.5~11.5); amine_secondary(9.5~11.5); amine_secondary(9.5~11.5)
C1CCCCNCCNCCNCCCCCCCCCNCCNCCNCCCC1,9.25,5:8:11:21:24:27,amine_secondary:amine_secondary:amine_secondary:amine_secondary:amine_secondary:amine_secondary,"1,4,7,17,20,23-Hexaazacyclodotriacontane",[H₄L]/[H₃L][H],0.1,25.0,5:8:11:21:24:27,amine_secondary:amine_secondary:amine_secondary:amine_secondary:amine_secondary:amine_secondary,5(amine_secondary) > 8(amine_secondary) > 11(amine_secondary) > 21(amine_secondary) > 24(amine_secondary) > 27(amine_secondary),amine_secondary,amine_secondary(9.5~11.5); amine_secondary(9.5~11.5); amine_secondary(9.5~11.5); amine_secondary(9.5~11.5); amine_secondary(9.5~11.5); amine_secondary(9.5~11.5)
C1CCCCNCCNCCNCCCCCCCCCNCCNCCNCCCC1,4.15,5:8:11:21:24:27,amine_secondary:amine_secondary:amine_secondary:amine_secondary:amine_secondary:amine_secondary,"1,4,7,17,20,23-Hexaazacyclodotriacontane",[H₅L]/[H₄L][H],0.1,25.0,5:8:11:21:24:27,amine_secondary:amine_secondary:amine_secondary:amine_secondary:amine_secondary:amine_secondary,5(amine_secondary) > 8(amine_secondary) > 11(amine_secondary) > 21(amine_secondary) > 24(amine_secondary) > 27(amine_secondary),amine_secondary,amine_secondary(9.5~11.5); amine_secondary(9.5~11.5); amine_secondary(9.5~11.5); amine_secondary(9.5~11.5); amine_secondary(9.5~11.5); amine_secondary(9.5~11.5)
C1CCCCNCCNCCNCCCCCCCCCNCCNCCNCCCC1,3.55,5:8:11:21:24:27,amine_secondary:amine_secondary:amine_secondary:amine_secondary:amine_secondary:amine_secondary,"1,4,7,17,20,23-Hexaazacyclodotriacontane",[H₆L]/[H₅L][H],0.1,25.0,5:8:11:21:24:27,amine_secondary:amine_secondary:amine_secondary:amine_secondary:amine_secondary:amine_secondary,5(amine_secondary) > 8(amine_secondary) > 11(amine_secondary) > 21(amine_secondary) > 24(amine_secondary) > 27(amine_secondary),amine_secondary,amine_secondary(9.5~11.5); amine_secondary(9.5~11.5); amine_secondary(9.5~11.5); amine_secondary(9.5~11.5); amine_secondary(9.5~11.5); amine_secondary(9.5~11.5)
C1CCCNCCCNCCCNCCCCCCCNCCCNCCCNCCC1,10.9,4:8:12:20:24:28,amine_secondary:amine_secondary:amine_secondary:amine_secondary:amine_secondary:amine_secondary,"1,5,9,17,21,25-Hexaazacyclodotriacontane",[HL]/[L][H],0.1,25.0,4:8:12:20:24:28,amine_secondary:amine_secondary:amine_secondary:amine_secondary:amine_secondary:amine_secondary,4(amine_secondary) > 8(amine_secondary) > 12(amine_secondary) > 20(amine_secondary) > 24(amine_secondary) > 28(amine_secondary),amine_secondary,amine_secondary(9.5~11.5); amine_secondary(9.5~11.5); amine_secondary(9.5~11.5); amine_secondary(9.5~11.5); amine_secondary(9.5~11.5); amine_secondary(9.5~11.5)
C1CCCNCCCNCCCNCCCCCCCNCCCNCCCNCCC1,10.7,4:8:12:20:24:28,amine_secondary:amine_secondary:amine_secondary:amine_secondary:amine_secondary:amine_secondary,"1,5,9,17,21,25-Hexaazacyclodotriacontane",[H₂L]/[HL][H],0.1,25.0,4:8:12:20:24:28,amine_secondary:amine_secondary:amine_secondary:amine_secondary:amine_secondary:amine_secondary,4(amine_secondary) > 8(amine_secondary) > 12(amine_secondary) > 20(amine_secondary) > 24(amine_secondary) > 28(amine_secondary),amine_secondary,amine_secondary(9.5~11.5); amine_secondary(9.5~11.5); amine_secondary(9.5~11.5); amine_secondary(9.5~11.5); amine_secondary(9.5~11.5); amine_secondary(9.5~11.5)
C1CCCNCCCNCCCNCCCCCCCNCCCNCCCNCCC1,9.85,4:8:12:20:24:28,amine_secondary:amine_secondary:amine_secondary:amine_secondary:amine_secondary:amine_secondary,"1,5,9,17,21,25-Hexaazacyclodotriacontane",[H₃L]/[H₂L][H],0.1,25.0,4:8:12:20:24:28,amine_secondary:amine_secondary:amine_secondary:amine_secondary:amine_secondary:amine_secondary,4(amine_secondary) > 8(amine_secondary) > 12(amine_secondary) > 20(amine_secondary) > 24(amine_secondary) > 28(amine_secondary),amine_secondary,amine_secondary(9.5~11.5); amine_secondary(9.5~11.5); amine_secondary(9.5~11.5); amine_secondary(9.5~11.5); amine_secondary(9.5~11.5); amine_secondary(9.5~11.5)
C1CCCNCCCNCCCNCCCCCCCNCCCNCCCNCCC1,9.6,4:8:12:20:24:28,amine_secondary:amine_secondary:amine_secondary:amine_secondary:amine_secondary:amine_secondary,"1,5,9,17,21,25-Hexaazacyclodotriacontane",[H₄L]/[H₃L][H],0.1,25.0,4:8:12:20:24:28,amine_secondary:amine_secondary:amine_secondary:amine_secondary:amine_secondary:amine_secondary,4(amine_secondary) > 8(amine_secondary) > 12(amine_secondary) > 20(amine_secondary) > 24(amine_secondary) > 28(amine_secondary),amine_secondary,amine_secondary(9.5~11.5); amine_secondary(9.5~11.5); amine_secondary(9.5~11.5); amine_secondary(9.5~11.5); amine_secondary(9.5~11.5); amine_secondary(9.5~11.5)
C1CCCNCCCNCCCNCCCCCCCNCCCNCCCNCCC1,7.9,4:8:12:20:24:28,amine_secondary:amine_secondary:amine_secondary:amine_secondary:amine_secondary:amine_secondary,"1,5,9,17,21,25-Hexaazacyclodotriacontane",[H₅L]/[H₄L][H],0.1,25.0,4:8:12:20:24:28,amine_secondary:amine_secondary:amine_secondary:amine_secondary:amine_secondary:amine_secondary,4(amine_secondary) > 8(amine_secondary) > 12(amine_secondary) > 20(amine_secondary) > 24(amine_secondary) > 28(amine_secondary),amine_secondary,amine_secondary(9.5~11.5); amine_secondary(9.5~11.5); amine_secondary(9.5~11.5); amine_secondary(9.5~11.5); amine_secondary(9.5~11.5); amine_secondary(9.5~11.5)
C1CCCNCCCNCCCNCCCCCCCNCCCNCCCNCCC1,7.3,4:8:12:20:24:28,amine_secondary:amine_secondary:amine_secondary:amine_secondary:amine_secondary:amine_secondary,"1,5,9,17,21,25-Hexaazacyclodotriacontane",[H₆L]/[H₅L][H],0.1,25.0,4:8:12:20:24:28,amine_secondary:amine_secondary:amine_secondary:amine_secondary:amine_secondary:amine_secondary,4(amine_secondary) > 8(amine_secondary) > 12(amine_secondary) > 20(amine_secondary) > 24(amine_secondary) > 28(amine_secondary),amine_secondary,amine_secondary(9.5~11.5); amine_secondary(9.5~11.5); amine_secondary(9.5~11.5); amine_secondary(9.5~11.5); amine_secondary(9.5~11.5); amine_secondary(9.5~11.5)
C1CCCCCNCCCNCCCNCCCCCCCCCCNCCCNCCCNCCCC1,10.3,6:10:14:25:29:33,amine_secondary:amine_secondary:amine_secondary:amine_secondary:amine_secondary:amine_secondary,"1,5,9,20,24,28-Hexaazacyclooctatriacontane",[H₂L]/[HL][H],0.1,25.0,6:10:14:25:29:33,amine_secondary:amine_secondary:amine_secondary:amine_secondary:amine_secondary:amine_secondary,6(amine_secondary) > 10(amine_secondary) > 14(amine_secondary) > 25(amine_secondary) > 29(amine_secondary) > 33(amine_secondary),amine_secondary,amine_secondary(9.5~11.5); amine_secondary(9.5~11.5); amine_secondary(9.5~11.5); amine_secondary(9.5~11.5); amine_secondary(9.5~11.5); amine_secondary(9.5~11.5)
C1CCCCCNCCCNCCCNCCCCCCCCCCNCCCNCCCNCCCC1,10.1,6:10:14:25:29:33,amine_secondary:amine_secondary:amine_secondary:amine_secondary:amine_secondary:amine_secondary,"1,5,9,20,24,28-Hexaazacyclooctatriacontane",[H₃L]/[H₂L][H],0.1,25.0,6:10:14:25:29:33,amine_secondary:amine_secondary:amine_secondary:amine_secondary:amine_secondary:amine_secondary,6(amine_secondary) > 10(amine_secondary) > 14(amine_secondary) > 25(amine_secondary) > 29(amine_secondary) > 33(amine_secondary),amine_secondary,amine_secondary(9.5~11.5); amine_secondary(9.5~11.5); amine_secondary(9.5~11.5); amine_secondary(9.5~11.5); amine_secondary(9.5~11.5); amine_secondary(9.5~11.5)
C1CCCCCNCCCNCCCNCCCCCCCCCCNCCCNCCCNCCCC1,9.6,6:10:14:25:29:33,amine_secondary:amine_secondary:amine_secondary:amine_secondary:amine_secondary:amine_secondary,"1,5,9,20,24,28-Hexaazacyclooctatriacontane",[H₄L]/[H₃L][H],0.1,25.0,6:10:14:25:29:33,amine_secondary:amine_secondary:amine_secondary:amine_secondary:amine_secondary:amine_secondary,6(amine_secondary) > 10(amine_secondary) > 14(amine_secondary) > 25(amine_secondary) > 29(amine_secondary) > 33(amine_secondary),amine_secondary,amine_secondary(9.5~11.5); amine_secondary(9.5~11.5); amine_secondary(9.5~11.5); amine_secondary(9.5~11.5); amine_secondary(9.5~11.5); amine_secondary(9.5~11.5)
C1CCCCCNCCCNCCCNCCCCCCCCCCNCCCNCCCNCCCC1,7.95,6:10:14:25:29:33,amine_secondary:amine_secondary:amine_secondary:amine_secondary:amine_secondary:amine_secondary,"1,5,9,20,24,28-Hexaazacyclooctatriacontane",[H₅L]/[H₄L][H],0.1,25.0,6:10:14:25:29:33,amine_secondary:amine_secondary:amine_secondary:amine_secondary:amine_secondary:amine_secondary,6(amine_secondary) > 10(amine_secondary) > 14(amine_secondary) > 25(amine_secondary) > 29(amine_secondary) > 33(amine_secondary),amine_secondary,amine_secondary(9.5~11.5); amine_secondary(9.5~11.5); amine_secondary(9.5~11.5); amine_secondary(9.5~11.5); amine_secondary(9.5~11.5); amine_secondary(9.5~11.5)
C1CCCCCNCCCNCCCNCCCCCCCCCCNCCCNCCCNCCCC1,7.3,6:10:14:25:29:33,amine_secondary:amine_secondary:amine_secondary:amine_secondary:amine_secondary:amine_secondary,"1,5,9,20,24,28-Hexaazacyclooctatriacontane",[H₆L]/[H₅L][H],0.1,25.0,6:10:14:25:29:33,amine_secondary:amine_secondary:amine_secondary:amine_secondary:amine_secondary:amine_secondary,6(amine_secondary) > 10(amine_secondary) > 14(amine_secondary) > 25(amine_secondary) > 29(amine_secondary) > 33(amine_secondary),amine_secondary,amine_secondary(9.5~11.5); amine_secondary(9.5~11.5); amine_secondary(9.5~11.5); amine_secondary(9.5~11.5); amine_secondary(9.5~11.5); amine_secondary(9.5~11.5)
CC1(F)C(=O)NCCNCCCNCCNC1=O,9.56,5:8,amine_secondary:amine_secondary,"5,7-Dioxo-6-fluoro-6-methyl-1,4,8,11-tetraazacyclotetradecane",[HL]/[L][H],0.1,25.0,5:8,amine_secondary:amine_secondary,5(amine_secondary) > 8(amine_secondary),amine_secondary,amine_secondary(9.5~11.5); amine_secondary(9.5~11.5)
CC1(F)C(=O)NCCNCCCNCCNC1=O,5.53,5:8,amine_secondary:amine_secondary,"5,7-Dioxo-6-fluoro-6-methyl-1,4,8,11-tetraazacyclotetradecane",[H₂L]/[HL][H],0.1,25.0,5:8,amine_secondary:amine_secondary,5(amine_secondary) > 8(amine_secondary),amine_secondary,amine_secondary(9.5~11.5); amine_secondary(9.5~11.5)
FC1(F)C(=O)NCCNCCCNCCNC1=O,9.22,5:8,amine_secondary:amine_secondary,"5,7-Dioxo-6,6-difluoro-1,4,8,11-tetraazacyclotetradecane",[HL]/[L][H],0.1,25.0,5:8,amine_secondary:amine_secondary,5(amine_secondary) > 8(amine_secondary),amine_secondary,amine_secondary(9.5~11.5); amine_secondary(9.5~11.5)
FC1(F)C(=O)NCCNCCCNCCNC1=O,5.18,5:8,amine_secondary:amine_secondary,"5,7-Dioxo-6,6-difluoro-1,4,8,11-tetraazacyclotetradecane",[H₂L]/[HL][H],0.1,25.0,5:8,amine_secondary:amine_secondary,5(amine_secondary) > 8(amine_secondary),amine_secondary,amine_secondary(9.5~11.5); amine_secondary(9.5~11.5)
FC1(F)CNCCNC(=O)C(F)(F)C(=O)NCCNC1,6.1,4:7,amine_secondary:amine_secondary,"5,7-Dioxo-6,6,13,13-tetrafluoro-1,4,8,11-tetraazacyclotetradecane",[HL]/[L][H],0.1,25.0,4:7,amine_secondary:amine_secondary,4(amine_secondary) > 7(amine_secondary),amine_secondary,amine_secondary(9.5~11.5); amine_secondary(9.5~11.5)
FC1(F)CNCCNC(=O)C(F)(F)C(=O)NCCNC1,1.9,4:7,amine_secondary:amine_secondary,"5,7-Dioxo-6,6,13,13-tetrafluoro-1,4,8,11-tetraazacyclotetradecane",[H₂L]/[HL][H],0.1,25.0,4:7,amine_secondary:amine_secondary,4(amine_secondary) > 7(amine_secondary),amine_secondary,amine_secondary(9.5~11.5); amine_secondary(9.5~11.5)
Oc1ccccc1CC2C(=O)NCCNCCCNCCNC2=O,9.97,11:14:18,amine_secondary:amine_secondary:amine_secondary,"5,7-Dioxo-6-(2-hydroxybenzyl)-1,4,8,11-tetraazacyclotetradecane",[HL]/[L][H],0.1,25.0,11:14:18,amine_secondary:amine_secondary:amine_secondary,11(amine_secondary) > 14(amine_secondary) > 18(amine_secondary),amine_secondary,amine_secondary(9.5~11.5); amine_secondary(9.5~11.5); amine_secondary(9.5~11.5)
Oc1ccccc1CC2C(=O)NCCNCCCNCCNC2=O,9.37,11:14:18,amine_secondary:amine_secondary:amine_secondary,"5,7-Dioxo-6-(2-hydroxybenzyl)-1,4,8,11-tetraazacyclotetradecane",[H₂L]/[HL][H],0.1,25.0,11:14:18,amine_secondary:amine_secondary:amine_secondary,11(amine_secondary) > 14(amine_secondary) > 18(amine_secondary),amine_secondary,amine_secondary(9.5~11.5); amine_secondary(9.5~11.5); amine_secondary(9.5~11.5)
Oc1ccccc1CC2C(=O)NCCNCCCNCCNC2=O,5.72,11:14:18,amine_secondary:amine_secondary:amine_secondary,"5,7-Dioxo-6-(2-hydroxybenzyl)-1,4,8,11-tetraazacyclotetradecane",[H₃L]/[H₂L][H],0.1,25.0,11:14:18,amine_secondary:amine_secondary:amine_secondary,11(amine_secondary) > 14(amine_secondary) > 18(amine_secondary),amine_secondary,amine_secondary(9.5~11.5); amine_secondary(9.5~11.5); amine_secondary(9.5~11.5)
NCCCCC1C(=O)NCCNCCCNCCNC1=O,10.05,0:8:11,amine_primary:amine_secondary:amine_secondary,"6-(4-Aminobutyl)-5,7-dioxo-1,4,8,11-tetraazacyclotetradecane",[HL]/[L][H],0.1,35.0,0:8:11,amine_primary:amine_secondary:amine_secondary,0(amine_primary) > 8(amine_secondary) > 11(amine_secondary),amine_primary,amine_primary(9.0~11.0); amine_secondary(9.5~11.5); amine_secondary(9.5~11.5)
NCCCCC1C(=O)NCCNCCCNCCNC1=O,9.34,0:8:11,amine_primary:amine_secondary:amine_secondary,"6-(4-Aminobutyl)-5,7-dioxo-1,4,8,11-tetraazacyclotetradecane",[H₂L]/[HL][H],0.1,35.0,0:8:11,amine_primary:amine_secondary:amine_secondary,0(amine_primary) > 8(amine_secondary) > 11(amine_secondary),amine_primary,amine_primary(9.0~11.0); amine_secondary(9.5~11.5); amine_secondary(9.5~11.5)
NCCCCC1C(=O)NCCNCCCNCCNC1=O,5.63,0:8:11,amine_primary:amine_secondary:amine_secondary,"6-(4-Aminobutyl)-5,7-dioxo-1,4,8,11-tetraazacyclotetradecane",[H₃L]/[H₂L][H],0.1,35.0,0:8:11,amine_primary:amine_secondary:amine_secondary,0(amine_primary) > 8(amine_secondary) > 11(amine_secondary),amine_primary,amine_primary(9.0~11.0); amine_secondary(9.5~11.5); amine_secondary(9.5~11.5)
O=C1NCCNCCCNCCNC(=O)C1CCc2ccccn2,9.58,2:5:9,amine_secondary:amine_secondary:amine_secondary,"5,7-Dioxo-6-[2-(2-pyridyl)ethyl]-1,4,8,11-tetraazacyclotetradecane",[HL]/[L][H],0.1,25.0,2:5:9,amine_secondary:amine_secondary:amine_secondary,2(amine_secondary) > 5(amine_secondary) > 9(amine_secondary),amine_secondary,amine_secondary(9.5~11.5); amine_secondary(9.5~11.5); amine_secondary(9.5~11.5)