SMILES,pKa,Dissociable_Atoms,Functional_Group,Name,Equilibrium,Ionic,Temperature,Dissociable_Atoms_Ordered,Functional_Group_Ordered,Dissociation_Order,Dissociating_Group,Functional_Group_pKa_Ranges
N[C@@H](CCC(=O)N[C@@H](CSSC[C@H](NC(=O)CC[C@H](N)C(O)=O)C(=O)NCC(O)=O)C(=O)NCC(O)=O)C(O)=O,9.35,21:28:35:38:0:19,carboxylic_acid:carboxylic_acid:carboxylic_acid:carboxylic_acid:amine_primary:amine_primary,"N,N-[N'',N''''-Di(L-5-glutamyl)-L-cystinyl]di(glycine) (Oxidized glutathione) (Glutathione disulfide)",[HL]/[L][H],0.5,25.0,21:28:35:38:0:19,carboxylic_acid:carboxylic_acid:carboxylic_acid:carboxylic_acid:amine_primary:amine_primary,21(carboxylic_acid) > 28(carboxylic_acid) > 35(carboxylic_acid) > 38(carboxylic_acid) > 0(amine_primary) > 19(amine_primary),amine_primary,carboxylic_acid(1.5~5.0); carboxylic_acid(1.5~5.0); carboxylic_acid(1.5~5.0); carboxylic_acid(1.5~5.0); amine_primary(9.0~11.0); amine_primary(9.0~11.0)
N[C@@H](CCC(=O)N[C@@H](CSSC[C@H](NC(=O)CC[C@H](N)C(O)=O)C(=O)NCC(O)=O)C(=O)NCC(O)=O)C(O)=O,8.85,21:28:35:38:0:19,carboxylic_acid:carboxylic_acid:carboxylic_acid:carboxylic_acid:amine_primary:amine_primary,"N,N-[N'',N''''-Di(L-5-glutamyl)-L-cystinyl]di(glycine) (Oxidized glutathione) (Glutathione disulfide)",[H₂L]/[HL][H],0.1,25.0,21:28:35:38:0:19,carboxylic_acid:carboxylic_acid:carboxylic_acid:carboxylic_acid:amine_primary:amine_primary,21(carboxylic_acid) > 28(carboxylic_acid) > 35(carboxylic_acid) > 38(carboxylic_acid) > 0(amine_primary) > 19(amine_primary),amine_primary,carboxylic_acid(1.5~5.0); carboxylic_acid(1.5~5.0); carboxylic_acid(1.5~5.0); carboxylic_acid(1.5~5.0); amine_primary(9.0~11.0); amine_primary(9.0~11.0)
N[C@@H](CCC(=O)N[C@@H](CSSC[C@H](NC(=O)CC[C@H](N)C(O)=O)C(=O)NCC(O)=O)C(=O)NCC(O)=O)C(O)=O,8.54,21:28:35:38:0:19,carboxylic_acid:carboxylic_acid:carboxylic_acid:carboxylic_acid:amine_primary:amine_primary,"N,N-[N'',N''''-Di(L-5-glutamyl)-L-cystinyl]di(glycine) (Oxidized glutathione) (Glutathione disulfide)",[H₂L]/[HL][H],0.15,37.0,21:28:35:38:0:19,carboxylic_acid:carboxylic_acid:carboxylic_acid:carboxylic_acid:amine_primary:amine_primary,21(carboxylic_acid) > 28(carboxylic_acid) > 35(carboxylic_acid) > 38(carboxylic_acid) > 0(amine_primary) > 19(amine_primary),amine_primary,carboxylic_acid(1.5~5.0); carboxylic_acid(1.5~5.0); carboxylic_acid(1.5~5.0); carboxylic_acid(1.5~5.0); amine_primary(9.0~11.0); amine_primary(9.0~11.0)
N[C@@H](CCC(=O)N[C@@H](CSSC[C@H](NC(=O)CC[C@H](N)C(O)=O)C(=O)NCC(O)=O)C(=O)NCC(O)=O)C(O)=O,8.59,21:28:35:38:0:19,carboxylic_acid:carboxylic_acid:carboxylic_acid:carboxylic_acid:amine_primary:amine_primary,"N,N-[N'',N''''-Di(L-5-glutamyl)-L-cystinyl]di(glycine) (Oxidized glutathione) (Glutathione disulfide)",[H₂L]/[HL][H],0.5,25.0,21:28:35:38:0:19,carboxylic_acid:carboxylic_acid:carboxylic_acid:carboxylic_acid:amine_primary:amine_primary,21(carboxylic_acid) > 28(carboxylic_acid) > 35(carboxylic_acid) > 38(carboxylic_acid) > 0(amine_primary) > 19(amine_primary),amine_primary,carboxylic_acid(1.5~5.0); carboxylic_acid(1.5~5.0); carboxylic_acid(1.5~5.0); carboxylic_acid(1.5~5.0); amine_primary(9.0~11.0); amine_primary(9.0~11.0)
N[C@@H](CCC(=O)N[C@@H](CSSC[C@H](NC(=O)CC[C@H](N)C(O)=O)C(=O)NCC(O)=O)C(=O)NCC(O)=O)C(O)=O,3.83,21:28:35:38:0:19,carboxylic_acid:carboxylic_acid:carboxylic_acid:carboxylic_acid:amine_primary:amine_primary,"N,N-[N'',N''''-Di(L-5-glutamyl)-L-cystinyl]di(glycine) (Oxidized glutathione) (Glutathione disulfide)",[H₃L]/[H₂L][H],0.1,25.0,21:28:35:38:0:19,carboxylic_acid:carboxylic_acid:carboxylic_acid:carboxylic_acid:amine_primary:amine_primary,21(carboxylic_acid) > 28(carboxylic_acid) > 35(carboxylic_acid) > 38(carboxylic_acid) > 0(amine_primary) > 19(amine_primary),carboxylic_acid,carboxylic_acid(1.5~5.0); carboxylic_acid(1.5~5.0); carboxylic_acid(1.5~5.0); carboxylic_acid(1.5~5.0); amine_primary(9.0~11.0); amine_primary(9.0~11.0)
N[C@@H](CCC(=O)N[C@@H](CSSC[C@H](NC(=O)CC[C@H](N)C(O)=O)C(=O)NCC(O)=O)C(=O)NCC(O)=O)C(O)=O,3.98,21:28:35:38:0:19,carboxylic_acid:carboxylic_acid:carboxylic_acid:carboxylic_acid:amine_primary:amine_primary,"N,N-[N'',N''''-Di(L-5-glutamyl)-L-cystinyl]di(glycine) (Oxidized glutathione) (Glutathione disulfide)",[H₃L]/[H₂L][H],0.15,37.0,21:28:35:38:0:19,carboxylic_acid:carboxylic_acid:carboxylic_acid:carboxylic_acid:amine_primary:amine_primary,21(carboxylic_acid) > 28(carboxylic_acid) > 35(carboxylic_acid) > 38(carboxylic_acid) > 0(amine_primary) > 19(amine_primary),carboxylic_acid,carboxylic_acid(1.5~5.0); carboxylic_acid(1.5~5.0); carboxylic_acid(1.5~5.0); carboxylic_acid(1.5~5.0); amine_primary(9.0~11.0); amine_primary(9.0~11.0)
N[C@@H](CCC(=O)N[C@@H](CSSC[C@H](NC(=O)CC[C@H](N)C(O)=O)C(=O)NCC(O)=O)C(=O)NCC(O)=O)C(O)=O,3.16,21:28:35:38:0:19,carboxylic_acid:carboxylic_acid:carboxylic_acid:carboxylic_acid:amine_primary:amine_primary,"N,N-[N'',N''''-Di(L-5-glutamyl)-L-cystinyl]di(glycine) (Oxidized glutathione) (Glutathione disulfide)",[H₄L]/[H₃L][H],0.1,25.0,21:28:35:38:0:19,carboxylic_acid:carboxylic_acid:carboxylic_acid:carboxylic_acid:amine_primary:amine_primary,21(carboxylic_acid) > 28(carboxylic_acid) > 35(carboxylic_acid) > 38(carboxylic_acid) > 0(amine_primary) > 19(amine_primary),carboxylic_acid,carboxylic_acid(1.5~5.0); carboxylic_acid(1.5~5.0); carboxylic_acid(1.5~5.0); carboxylic_acid(1.5~5.0); amine_primary(9.0~11.0); amine_primary(9.0~11.0)
N[C@@H](CCC(=O)N[C@@H](CSSC[C@H](NC(=O)CC[C@H](N)C(O)=O)C(=O)NCC(O)=O)C(=O)NCC(O)=O)C(O)=O,3.16,21:28:35:38:0:19,carboxylic_acid:carboxylic_acid:carboxylic_acid:carboxylic_acid:amine_primary:amine_primary,"N,N-[N'',N''''-Di(L-5-glutamyl)-L-cystinyl]di(glycine) (Oxidized glutathione) (Glutathione disulfide)",[H₄L]/[H₃L][H],0.15,37.0,21:28:35:38:0:19,carboxylic_acid:carboxylic_acid:carboxylic_acid:carboxylic_acid:amine_primary:amine_primary,21(carboxylic_acid) > 28(carboxylic_acid) > 35(carboxylic_acid) > 38(carboxylic_acid) > 0(amine_primary) > 19(amine_primary),carboxylic_acid,carboxylic_acid(1.5~5.0); carboxylic_acid(1.5~5.0); carboxylic_acid(1.5~5.0); carboxylic_acid(1.5~5.0); amine_primary(9.0~11.0); amine_primary(9.0~11.0)
N[C@@H](CCC(=O)N[C@@H](CSSC[C@H](NC(=O)CC[C@H](N)C(O)=O)C(=O)NCC(O)=O)C(=O)NCC(O)=O)C(O)=O,2.35,21:28:35:38:0:19,carboxylic_acid:carboxylic_acid:carboxylic_acid:carboxylic_acid:amine_primary:amine_primary,"N,N-[N'',N''''-Di(L-5-glutamyl)-L-cystinyl]di(glycine) (Oxidized glutathione) (Glutathione disulfide)",[H₅L]/[H₄L][H],0.1,25.0,21:28:35:38:0:19,carboxylic_acid:carboxylic_acid:carboxylic_acid:carboxylic_acid:amine_primary:amine_primary,21(carboxylic_acid) > 28(carboxylic_acid) > 35(carboxylic_acid) > 38(carboxylic_acid) > 0(amine_primary) > 19(amine_primary),carboxylic_acid,carboxylic_acid(1.5~5.0); carboxylic_acid(1.5~5.0); carboxylic_acid(1.5~5.0); carboxylic_acid(1.5~5.0); amine_primary(9.0~11.0); amine_primary(9.0~11.0)
N[C@@H](CCC(=O)N[C@@H](CSSC[C@H](NC(=O)CC[C@H](N)C(O)=O)C(=O)NCC(O)=O)C(=O)NCC(O)=O)C(O)=O,2.64,21:28:35:38:0:19,carboxylic_acid:carboxylic_acid:carboxylic_acid:carboxylic_acid:amine_primary:amine_primary,"N,N-[N'',N''''-Di(L-5-glutamyl)-L-cystinyl]di(glycine) (Oxidized glutathione) (Glutathione disulfide)",[H₅L]/[H₄L][H],0.15,37.0,21:28:35:38:0:19,carboxylic_acid:carboxylic_acid:carboxylic_acid:carboxylic_acid:amine_primary:amine_primary,21(carboxylic_acid) > 28(carboxylic_acid) > 35(carboxylic_acid) > 38(carboxylic_acid) > 0(amine_primary) > 19(amine_primary),carboxylic_acid,carboxylic_acid(1.5~5.0); carboxylic_acid(1.5~5.0); carboxylic_acid(1.5~5.0); carboxylic_acid(1.5~5.0); amine_primary(9.0~11.0); amine_primary(9.0~11.0)
N[C@@H](CCC(=O)N[C@@H](CSSC[C@H](NC(=O)CC[C@H](N)C(O)=O)C(=O)NCC(O)=O)C(=O)NCC(O)=O)C(O)=O,1.5,21:28:35:38:0:19,carboxylic_acid:carboxylic_acid:carboxylic_acid:carboxylic_acid:amine_primary:amine_primary,"N,N-[N'',N''''-Di(L-5-glutamyl)-L-cystinyl]di(glycine) (Oxidized glutathione) (Glutathione disulfide)",[H₆L]/[H₅L][H],0.1,25.0,21:28:35:38:0:19,carboxylic_acid:carboxylic_acid:carboxylic_acid:carboxylic_acid:amine_primary:amine_primary,21(carboxylic_acid) > 28(carboxylic_acid) > 35(carboxylic_acid) > 38(carboxylic_acid) > 0(amine_primary) > 19(amine_primary),carboxylic_acid,carboxylic_acid(1.5~5.0); carboxylic_acid(1.5~5.0); carboxylic_acid(1.5~5.0); carboxylic_acid(1.5~5.0); amine_primary(9.0~11.0); amine_primary(9.0~11.0)
N[C@@H](CCC(=O)N[C@@H](CSSC[C@H](NC(=O)CC[C@H](N)C(O)=O)C(=O)NCC(O)=O)C(=O)NCC(O)=O)C(O)=O,1.8,21:28:35:38:0:19,carboxylic_acid:carboxylic_acid:carboxylic_acid:carboxylic_acid:amine_primary:amine_primary,"N,N-[N'',N''''-Di(L-5-glutamyl)-L-cystinyl]di(glycine) (Oxidized glutathione) (Glutathione disulfide)",[H₆L]/[H₅L][H],0.15,37.0,21:28:35:38:0:19,carboxylic_acid:carboxylic_acid:carboxylic_acid:carboxylic_acid:amine_primary:amine_primary,21(carboxylic_acid) > 28(carboxylic_acid) > 35(carboxylic_acid) > 38(carboxylic_acid) > 0(amine_primary) > 19(amine_primary),carboxylic_acid,carboxylic_acid(1.5~5.0); carboxylic_acid(1.5~5.0); carboxylic_acid(1.5~5.0); carboxylic_acid(1.5~5.0); amine_primary(9.0~11.0); amine_primary(9.0~11.0)
NCC(=O)NCC(=O)N1CCC[C@H]1C(=O)NCC(=O)NCC(=O)NCC(=O)N2CCC[C@H]2C(=O)NCC(O)=O,8.17,37:0,carboxylic_acid:amine_primary,Glycylglycyl-L-prolylglycylglycylglycyl-L-prolylglycine,[HL]/[L][H],0.1,25.0,37:0,carboxylic_acid:amine_primary,37(carboxylic_acid) > 0(amine_primary),amine_primary,carboxylic_acid(1.5~5.0); amine_primary(9.0~11.0)
NCC(=O)NCC(=O)N1CCC[C@H]1C(=O)NCC(=O)NCC(=O)NCC(=O)N2CCC[C@H]2C(=O)NCC(O)=O,3.11,37:0,carboxylic_acid:amine_primary,Glycylglycyl-L-prolylglycylglycylglycyl-L-prolylglycine,[H₂L]/[HL][H],0.1,25.0,37:0,carboxylic_acid:amine_primary,37(carboxylic_acid) > 0(amine_primary),carboxylic_acid,carboxylic_acid(1.5~5.0); amine_primary(9.0~11.0)
NCCCC[C@H](NC(=O)[C@@H]1CCCN1C(=O)CNC(=O)CNC(=O)[C@H](CCCCN)NC(=O)[C@@H]2CCCN2C(=O)CNC(=O)CN)C(O)=O,10.48,47:0:29:45,carboxylic_acid:amine_primary:amine_primary:amine_primary,Glycylglycyl-L-prolyl-L-lysylglycylglycyl-L-prolyl-L-lysine,[HL]/[L][H],0.1,25.0,47:0:29:45,carboxylic_acid:amine_primary:amine_primary:amine_primary,47(carboxylic_acid) > 0(amine_primary) > 29(amine_primary) > 45(amine_primary),amine_primary,carboxylic_acid(1.5~5.0); amine_primary(9.0~11.0); amine_primary(9.0~11.0); amine_primary(9.0~11.0)
NCCCC[C@H](NC(=O)[C@@H]1CCCN1C(=O)CNC(=O)CNC(=O)[C@H](CCCCN)NC(=O)[C@@H]2CCCN2C(=O)CNC(=O)CN)C(O)=O,10.12,47:0:29:45,carboxylic_acid:amine_primary:amine_primary:amine_primary,Glycylglycyl-L-prolyl-L-lysylglycylglycyl-L-prolyl-L-lysine,[H₂L]/[HL][H],0.1,25.0,47:0:29:45,carboxylic_acid:amine_primary:amine_primary:amine_primary,47(carboxylic_acid) > 0(amine_primary) > 29(amine_primary) > 45(amine_primary),amine_primary,carboxylic_acid(1.5~5.0); amine_primary(9.0~11.0); amine_primary(9.0~11.0); amine_primary(9.0~11.0)
NCCCC[C@H](NC(=O)[C@@H]1CCCN1C(=O)CNC(=O)CNC(=O)[C@H](CCCCN)NC(=O)[C@@H]2CCCN2C(=O)CNC(=O)CN)C(O)=O,7.98,47:0:29:45,carboxylic_acid:amine_primary:amine_primary:amine_primary,Glycylglycyl-L-prolyl-L-lysylglycylglycyl-L-prolyl-L-lysine,[H₃L]/[H₂L][H],0.1,25.0,47:0:29:45,carboxylic_acid:amine_primary:amine_primary:amine_primary,47(carboxylic_acid) > 0(amine_primary) > 29(amine_primary) > 45(amine_primary),amine_primary,carboxylic_acid(1.5~5.0); amine_primary(9.0~11.0); amine_primary(9.0~11.0); amine_primary(9.0~11.0)
NCCCC[C@H](NC(=O)[C@@H]1CCCN1C(=O)CNC(=O)CNC(=O)[C@H](CCCCN)NC(=O)[C@@H]2CCCN2C(=O)CNC(=O)CN)C(O)=O,3.12,47:0:29:45,carboxylic_acid:amine_primary:amine_primary:amine_primary,Glycylglycyl-L-prolyl-L-lysylglycylglycyl-L-prolyl-L-lysine,[H₄L]/[H₃L][H],0.1,25.0,47:0:29:45,carboxylic_acid:amine_primary:amine_primary:amine_primary,47(carboxylic_acid) > 0(amine_primary) > 29(amine_primary) > 45(amine_primary),carboxylic_acid,carboxylic_acid(1.5~5.0); amine_primary(9.0~11.0); amine_primary(9.0~11.0); amine_primary(9.0~11.0)
CC(C)CC(NC(=O)[C@H](Cc1ccccc1)NC(=O)[C@H](CC(O)=O)NC(=O)CNC(=O)[C@H](CCC(O)=O)NC(=O)CNC(=O)[C@H](CO)NC(=O)[C@H](CC(O)=O)NC(=O)[C@H](C)N)C(=O)N[C@@H](C)C(=O)N[C@@H](CCC(O)=O)C(=O)NCC(=O)NCC(=O)NCC(=O)N[C@@H](C(C)C)C(=O)N[C@@H](CCCNC(N)=N)C(O)=O,8.4,22:35:53:73:106:60,carboxylic_acid:carboxylic_acid:carboxylic_acid:carboxylic_acid:carboxylic_acid:amine_primary,L-Alanyl-L-aspartyl-L-serylglycyl-L-glutamylglycyl-L-aspartyl-L-phenylalanyl-L-leucyl-L-alanyl-L-glutamylglycylglycylglycyl-L-valyl-L-arginine (fibrinopeptide A),[HL]/[L][H],0.1,25.0,22:35:53:73:106:60,carboxylic_acid:carboxylic_acid:carboxylic_acid:carboxylic_acid:carboxylic_acid:amine_primary,22(carboxylic_acid) > 35(carboxylic_acid) > 53(carboxylic_acid) > 73(carboxylic_acid) > 106(carboxylic_acid) > 60(amine_primary),amine_primary,carboxylic_acid(1.5~5.0); carboxylic_acid(1.5~5.0); carboxylic_acid(1.5~5.0); carboxylic_acid(1.5~5.0); carboxylic_acid(1.5~5.0); amine_primary(9.0~11.0)
CC(C)CC(NC(=O)[C@H](Cc1ccccc1)NC(=O)[C@H](CC(O)=O)NC(=O)CNC(=O)[C@H](CCC(O)=O)NC(=O)CNC(=O)[C@H](CO)NC(=O)[C@H](CC(O)=O)NC(=O)[C@H](C)N)C(=O)N[C@@H](C)C(=O)N[C@@H](CCC(O)=O)C(=O)NCC(=O)NCC(=O)NCC(=O)N[C@@H](C(C)C)C(=O)N[C@@H](CCCNC(N)=N)C(O)=O,5.03,22:35:53:73:106:60,carboxylic_acid:carboxylic_acid:carboxylic_acid:carboxylic_acid:carboxylic_acid:amine_primary,L-Alanyl-L-aspartyl-L-serylglycyl-L-glutamylglycyl-L-aspartyl-L-phenylalanyl-L-leucyl-L-alanyl-L-glutamylglycylglycylglycyl-L-valyl-L-arginine (fibrinopeptide A),[H₂L]/[HL][H],0.1,25.0,22:35:53:73:106:60,carboxylic_acid:carboxylic_acid:carboxylic_acid:carboxylic_acid:carboxylic_acid:amine_primary,22(carboxylic_acid) > 35(carboxylic_acid) > 53(carboxylic_acid) > 73(carboxylic_acid) > 106(carboxylic_acid) > 60(amine_primary),carboxylic_acid,carboxylic_acid(1.5~5.0); carboxylic_acid(1.5~5.0); carboxylic_acid(1.5~5.0); carboxylic_acid(1.5~5.0); carboxylic_acid(1.5~5.0); amine_primary(9.0~11.0)
CC(C)CC(NC(=O)[C@H](Cc1ccccc1)NC(=O)[C@H](CC(O)=O)NC(=O)CNC(=O)[C@H](CCC(O)=O)NC(=O)CNC(=O)[C@H](CO)NC(=O)[C@H](CC(O)=O)NC(=O)[C@H](C)N)C(=O)N[C@@H](C)C(=O)N[C@@H](CCC(O)=O)C(=O)NCC(=O)NCC(=O)NCC(=O)N[C@@H](C(C)C)C(=O)N[C@@H](CCCNC(N)=N)C(O)=O,4.31,22:35:53:73:106:60,carboxylic_acid:carboxylic_acid:carboxylic_acid:carboxylic_acid:carboxylic_acid:amine_primary,L-Alanyl-L-aspartyl-L-serylglycyl-L-glutamylglycyl-L-aspartyl-L-phenylalanyl-L-leucyl-L-alanyl-L-glutamylglycylglycylglycyl-L-valyl-L-arginine (fibrinopeptide A),[H₃L]/[H₂L][H],0.1,25.0,22:35:53:73:106:60,carboxylic_acid:carboxylic_acid:carboxylic_acid:carboxylic_acid:carboxylic_acid:amine_primary,22(carboxylic_acid) > 35(carboxylic_acid) > 53(carboxylic_acid) > 73(carboxylic_acid) > 106(carboxylic_acid) > 60(amine_primary),carboxylic_acid,carboxylic_acid(1.5~5.0); carboxylic_acid(1.5~5.0); carboxylic_acid(1.5~5.0); carboxylic_acid(1.5~5.0); carboxylic_acid(1.5~5.0); amine_primary(9.0~11.0)
CC(C)CC(NC(=O)[C@H](Cc1ccccc1)NC(=O)[C@H](CC(O)=O)NC(=O)CNC(=O)[C@H](CCC(O)=O)NC(=O)CNC(=O)[C@H](CO)NC(=O)[C@H](CC(O)=O)NC(=O)[C@H](C)N)C(=O)N[C@@H](C)C(=O)N[C@@H](CCC(O)=O)C(=O)NCC(=O)NCC(=O)NCC(=O)N[C@@H](C(C)C)C(=O)N[C@@H](CCCNC(N)=N)C(O)=O,3.62,22:35:53:73:106:60,carboxylic_acid:carboxylic_acid:carboxylic_acid:carboxylic_acid:carboxylic_acid:amine_primary,L-Alanyl-L-aspartyl-L-serylglycyl-L-glutamylglycyl-L-aspartyl-L-phenylalanyl-L-leucyl-L-alanyl-L-glutamylglycylglycylglycyl-L-valyl-L-arginine (fibrinopeptide A),[H₄L]/[H₃L][H],0.1,25.0,22:35:53:73:106:60,carboxylic_acid:carboxylic_acid:carboxylic_acid:carboxylic_acid:carboxylic_acid:amine_primary,22(carboxylic_acid) > 35(carboxylic_acid) > 53(carboxylic_acid) > 73(carboxylic_acid) > 106(carboxylic_acid) > 60(amine_primary),carboxylic_acid,carboxylic_acid(1.5~5.0); carboxylic_acid(1.5~5.0); carboxylic_acid(1.5~5.0); carboxylic_acid(1.5~5.0); carboxylic_acid(1.5~5.0); amine_primary(9.0~11.0)
CC(C)CC(NC(=O)[C@H](Cc1ccccc1)NC(=O)[C@H](CC(O)=O)NC(=O)CNC(=O)[C@H](CCC(O)=O)NC(=O)CNC(=O)[C@H](CO)NC(=O)[C@H](CC(O)=O)NC(=O)[C@H](C)N)C(=O)N[C@@H](C)C(=O)N[C@@H](CCC(O)=O)C(=O)NCC(=O)NCC(=O)NCC(=O)N[C@@H](C(C)C)C(=O)N[C@@H](CCCNC(N)=N)C(O)=O,3.5,22:35:53:73:106:60,carboxylic_acid:carboxylic_acid:carboxylic_acid:carboxylic_acid:carboxylic_acid:amine_primary,L-Alanyl-L-aspartyl-L-serylglycyl-L-glutamylglycyl-L-aspartyl-L-phenylalanyl-L-leucyl-L-alanyl-L-glutamylglycylglycylglycyl-L-valyl-L-arginine (fibrinopeptide A),[H₅L]/[H₄L][H],0.1,25.0,22:35:53:73:106:60,carboxylic_acid:carboxylic_acid:carboxylic_acid:carboxylic_acid:carboxylic_acid:amine_primary,22(carboxylic_acid) > 35(carboxylic_acid) > 53(carboxylic_acid) > 73(carboxylic_acid) > 106(carboxylic_acid) > 60(amine_primary),carboxylic_acid,carboxylic_acid(1.5~5.0); carboxylic_acid(1.5~5.0); carboxylic_acid(1.5~5.0); carboxylic_acid(1.5~5.0); carboxylic_acid(1.5~5.0); amine_primary(9.0~11.0)
CC(C)CC(NC(=O)[C@H](Cc1ccccc1)NC(=O)[C@H](CC(O)=O)NC(=O)CNC(=O)[C@H](CCC(O)=O)NC(=O)CNC(=O)[C@H](CO)NC(=O)[C@H](CC(O)=O)NC(=O)[C@H](C)N)C(=O)N[C@@H](C)C(=O)N[C@@H](CCC(O)=O)C(=O)NCC(=O)NCC(=O)NCC(=O)N[C@@H](C(C)C)C(=O)N[C@@H](CCCNC(N)=N)C(O)=O,2.6,22:35:53:73:106:60,carboxylic_acid:carboxylic_acid:carboxylic_acid:carboxylic_acid:carboxylic_acid:amine_primary,L-Alanyl-L-aspartyl-L-serylglycyl-L-glutamylglycyl-L-aspartyl-L-phenylalanyl-L-leucyl-L-alanyl-L-glutamylglycylglycylglycyl-L-valyl-L-arginine (fibrinopeptide A),[H₆L]/[H₅L][H],0.1,25.0,22:35:53:73:106:60,carboxylic_acid:carboxylic_acid:carboxylic_acid:carboxylic_acid:carboxylic_acid:amine_primary,22(carboxylic_acid) > 35(carboxylic_acid) > 53(carboxylic_acid) > 73(carboxylic_acid) > 106(carboxylic_acid) > 60(amine_primary),carboxylic_acid,carboxylic_acid(1.5~5.0); carboxylic_acid(1.5~5.0); carboxylic_acid(1.5~5.0); carboxylic_acid(1.5~5.0); carboxylic_acid(1.5~5.0); amine_primary(9.0~11.0)
Nc1ccccc1C(O)=O,4.78,0:8,aniline:carboxylic_acid,2-Aminobenzoic acid (Anthranilic acid),[HL]/[L][H],0.1,25.0,8:0,carboxylic_acid:aniline,8(carboxylic_acid) > 0(aniline),carboxylic_acid,aniline(Unknown); carboxylic_acid(1.5~5.0)
Nc1ccccc1C(O)=O,4.78,0:8,aniline:carboxylic_acid,2-Aminobenzoic acid (Anthranilic acid),[HL]/[L][H],0.5,25.0,8:0,carboxylic_acid:aniline,8(carboxylic_acid) > 0(aniline),carboxylic_acid,aniline(Unknown); carboxylic_acid(1.5~5.0)
Nc1ccccc1C(O)=O,4.96,0:8,aniline:carboxylic_acid,2-Aminobenzoic acid (Anthranilic acid),[HL]/[L][H],0.0,25.0,8:0,carboxylic_acid:aniline,8(carboxylic_acid) > 0(aniline),carboxylic_acid,aniline(Unknown); carboxylic_acid(1.5~5.0)
Nc1ccccc1C(O)=O,2.01,0:8,aniline:carboxylic_acid,2-Aminobenzoic acid (Anthranilic acid),[H₂L]/[HL][H],0.1,25.0,8:0,carboxylic_acid:aniline,8(carboxylic_acid) > 0(aniline),carboxylic_acid,aniline(Unknown); carboxylic_acid(1.5~5.0)
Nc1ccccc1C(O)=O,2.22,0:8,aniline:carboxylic_acid,2-Aminobenzoic acid (Anthranilic acid),[H₂L]/[HL][H],0.5,25.0,8:0,carboxylic_acid:aniline,8(carboxylic_acid) > 0(aniline),carboxylic_acid,aniline(Unknown); carboxylic_acid(1.5~5.0)
Nc1ccccc1C(O)=O,2.08,0:8,aniline:carboxylic_acid,2-Aminobenzoic acid (Anthranilic acid),[H₂L]/[HL][H],0.0,25.0,8:0,carboxylic_acid:aniline,8(carboxylic_acid) > 0(aniline),carboxylic_acid,aniline(Unknown); carboxylic_acid(1.5~5.0)
Nc1cccc(c1)C(O)=O,4.55,0:8,aniline:carboxylic_acid,3-Aminobenzoic acid,[HL]/[L][H],0.1,25.0,8:0,carboxylic_acid:aniline,8(carboxylic_acid) > 0(aniline),carboxylic_acid,aniline(Unknown); carboxylic_acid(1.5~5.0)
Nc1cccc(c1)C(O)=O,4.76,0:8,aniline:carboxylic_acid,3-Aminobenzoic acid,[HL]/[L][H],0.0,25.0,8:0,carboxylic_acid:aniline,8(carboxylic_acid) > 0(aniline),carboxylic_acid,aniline(Unknown); carboxylic_acid(1.5~5.0)
Nc1cccc(c1)C(O)=O,3.14,0:8,aniline:carboxylic_acid,3-Aminobenzoic acid,[H₂L]/[HL][H],0.1,25.0,8:0,carboxylic_acid:aniline,8(carboxylic_acid) > 0(aniline),carboxylic_acid,aniline(Unknown); carboxylic_acid(1.5~5.0)
Nc1cccc(c1)C(O)=O,3.08,0:8,aniline:carboxylic_acid,3-Aminobenzoic acid,[H₂L]/[HL][H],0.0,25.0,8:0,carboxylic_acid:aniline,8(carboxylic_acid) > 0(aniline),carboxylic_acid,aniline(Unknown); carboxylic_acid(1.5~5.0)
Nc1ccc(cc1)C(O)=O,4.69,0:8,aniline:carboxylic_acid,4-Aminobenzoic acid,[HL]/[L][H],0.1,25.0,8:0,carboxylic_acid:aniline,8(carboxylic_acid) > 0(aniline),carboxylic_acid,aniline(Unknown); carboxylic_acid(1.5~5.0)