SMILES,pKa,Dissociable_Atoms,Functional_Group,Name,Equilibrium,Ionic,Temperature,Dissociable_Atoms_Ordered,Functional_Group_Ordered,Dissociation_Order,Dissociating_Group,Functional_Group_pKa_Ranges
N[C@@H](Cc1ccc(O)cc1)C(=O)N[C@H](Cc2ccc(O)cc2)C(O)=O,9.73,23:0:12:7,carboxylic_acid:amine_primary:amine_secondary:phenol,L-Tyrosyl-D-tyrosine,[H₂L]/[HL][H],0.1,25.0,23:7:0:12,carboxylic_acid:phenol:amine_primary:amine_secondary,23(carboxylic_acid) > 7(phenol) > 0(amine_primary) > 12(amine_secondary),phenol,carboxylic_acid(1.5~5.0); amine_primary(9.0~11.0); amine_secondary(9.5~11.5); phenol(8.0~11.0)
N[C@@H](Cc1ccc(O)cc1)C(=O)N[C@H](Cc2ccc(O)cc2)C(O)=O,7.74,23:0:12:7,carboxylic_acid:amine_primary:amine_secondary:phenol,L-Tyrosyl-D-tyrosine,[H₃L]/[H₂L][H],0.1,25.0,23:7:0:12,carboxylic_acid:phenol:amine_primary:amine_secondary,23(carboxylic_acid) > 7(phenol) > 0(amine_primary) > 12(amine_secondary),phenol,carboxylic_acid(1.5~5.0); amine_primary(9.0~11.0); amine_secondary(9.5~11.5); phenol(8.0~11.0)
N[C@@H](Cc1ccc(O)cc1)C(=O)N[C@H](Cc2ccc(O)cc2)C(O)=O,2.93,23:0:12:7,carboxylic_acid:amine_primary:amine_secondary:phenol,L-Tyrosyl-D-tyrosine,[H₄L]/[H₃L][H],0.1,25.0,23:7:0:12,carboxylic_acid:phenol:amine_primary:amine_secondary,23(carboxylic_acid) > 7(phenol) > 0(amine_primary) > 12(amine_secondary),carboxylic_acid,carboxylic_acid(1.5~5.0); amine_primary(9.0~11.0); amine_secondary(9.5~11.5); phenol(8.0~11.0)
N[C@@H](Cc1ccc(O)cc1)C(=O)N[C@@H](CCC(O)=O)C(O)=O,10.09,17:20:0:12,carboxylic_acid:carboxylic_acid:amine_primary:amine_secondary,L-Tyrosyl-L-glutamic acid,[HL]/[L][H],0.1,25.0,17:20:0:12,carboxylic_acid:carboxylic_acid:amine_primary:amine_secondary,17(carboxylic_acid) > 20(carboxylic_acid) > 0(amine_primary) > 12(amine_secondary),amine_primary,carboxylic_acid(1.5~5.0); carboxylic_acid(1.5~5.0); amine_primary(9.0~11.0); amine_secondary(9.5~11.5)
N[C@@H](Cc1ccc(O)cc1)C(=O)N[C@@H](CCC(O)=O)C(O)=O,7.69,17:20:0:12,carboxylic_acid:carboxylic_acid:amine_primary:amine_secondary,L-Tyrosyl-L-glutamic acid,[H₂L]/[HL][H],0.1,25.0,17:20:0:12,carboxylic_acid:carboxylic_acid:amine_primary:amine_secondary,17(carboxylic_acid) > 20(carboxylic_acid) > 0(amine_primary) > 12(amine_secondary),amine_primary,carboxylic_acid(1.5~5.0); carboxylic_acid(1.5~5.0); amine_primary(9.0~11.0); amine_secondary(9.5~11.5)
N[C@@H](Cc1ccc(O)cc1)C(=O)N[C@@H](CCC(O)=O)C(O)=O,4.48,17:20:0:12,carboxylic_acid:carboxylic_acid:amine_primary:amine_secondary,L-Tyrosyl-L-glutamic acid,[H₃L]/[H₂L][H],0.1,25.0,17:20:0:12,carboxylic_acid:carboxylic_acid:amine_primary:amine_secondary,17(carboxylic_acid) > 20(carboxylic_acid) > 0(amine_primary) > 12(amine_secondary),carboxylic_acid,carboxylic_acid(1.5~5.0); carboxylic_acid(1.5~5.0); amine_primary(9.0~11.0); amine_secondary(9.5~11.5)
N[C@@H](Cc1ccc(O)cc1)C(=O)N[C@@H](CCC(O)=O)C(O)=O,3.17,17:20:0:12,carboxylic_acid:carboxylic_acid:amine_primary:amine_secondary,L-Tyrosyl-L-glutamic acid,[H₄L]/[H₃L][H],0.1,25.0,17:20:0:12,carboxylic_acid:carboxylic_acid:amine_primary:amine_secondary,17(carboxylic_acid) > 20(carboxylic_acid) > 0(amine_primary) > 12(amine_secondary),carboxylic_acid,carboxylic_acid(1.5~5.0); carboxylic_acid(1.5~5.0); amine_primary(9.0~11.0); amine_secondary(9.5~11.5)
N[C@@H](Cc1ccc(O)cc1)C(=O)N[C@H](CCC(O)=O)C(O)=O,10.17,17:20:0:12,carboxylic_acid:carboxylic_acid:amine_primary:amine_secondary,L-Tyrosyl-D-glutamic acid,[HL]/[L][H],0.1,25.0,17:20:0:12,carboxylic_acid:carboxylic_acid:amine_primary:amine_secondary,17(carboxylic_acid) > 20(carboxylic_acid) > 0(amine_primary) > 12(amine_secondary),amine_primary,carboxylic_acid(1.5~5.0); carboxylic_acid(1.5~5.0); amine_primary(9.0~11.0); amine_secondary(9.5~11.5)
N[C@@H](Cc1ccc(O)cc1)C(=O)N[C@H](CCC(O)=O)C(O)=O,7.85,17:20:0:12,carboxylic_acid:carboxylic_acid:amine_primary:amine_secondary,L-Tyrosyl-D-glutamic acid,[H₂L]/[HL][H],0.1,25.0,17:20:0:12,carboxylic_acid:carboxylic_acid:amine_primary:amine_secondary,17(carboxylic_acid) > 20(carboxylic_acid) > 0(amine_primary) > 12(amine_secondary),amine_primary,carboxylic_acid(1.5~5.0); carboxylic_acid(1.5~5.0); amine_primary(9.0~11.0); amine_secondary(9.5~11.5)
N[C@@H](Cc1ccc(O)cc1)C(=O)N[C@H](CCC(O)=O)C(O)=O,4.65,17:20:0:12,carboxylic_acid:carboxylic_acid:amine_primary:amine_secondary,L-Tyrosyl-D-glutamic acid,[H₃L]/[H₂L][H],0.1,25.0,17:20:0:12,carboxylic_acid:carboxylic_acid:amine_primary:amine_secondary,17(carboxylic_acid) > 20(carboxylic_acid) > 0(amine_primary) > 12(amine_secondary),carboxylic_acid,carboxylic_acid(1.5~5.0); carboxylic_acid(1.5~5.0); amine_primary(9.0~11.0); amine_secondary(9.5~11.5)
N[C@@H](Cc1ccc(O)cc1)C(=O)N[C@H](CCC(O)=O)C(O)=O,2.85,17:20:0:12,carboxylic_acid:carboxylic_acid:amine_primary:amine_secondary,L-Tyrosyl-D-glutamic acid,[H₄L]/[H₃L][H],0.1,25.0,17:20:0:12,carboxylic_acid:carboxylic_acid:amine_primary:amine_secondary,17(carboxylic_acid) > 20(carboxylic_acid) > 0(amine_primary) > 12(amine_secondary),carboxylic_acid,carboxylic_acid(1.5~5.0); carboxylic_acid(1.5~5.0); amine_primary(9.0~11.0); amine_secondary(9.5~11.5)
N[C@@H](Cc1ccc(O)cc1)C(=O)N[C@@H](CCCNC(N)=N)C(O)=O,9.82,22:0:19,carboxylic_acid:amine_primary:amine_primary,L-Tyrosyl-L-arginine,[HL]/[L][H],0.1,25.0,22:0:19,carboxylic_acid:amine_primary:amine_primary,22(carboxylic_acid) > 0(amine_primary) > 19(amine_primary),amine_primary,carboxylic_acid(1.5~5.0); amine_primary(9.0~11.0); amine_primary(9.0~11.0)
N[C@@H](Cc1ccc(O)cc1)C(=O)N[C@@H](CCCNC(N)=N)C(O)=O,7.24,22:0:19,carboxylic_acid:amine_primary:amine_primary,L-Tyrosyl-L-arginine,[H₂L]/[HL][H],0.1,25.0,22:0:19,carboxylic_acid:amine_primary:amine_primary,22(carboxylic_acid) > 0(amine_primary) > 19(amine_primary),amine_primary,carboxylic_acid(1.5~5.0); amine_primary(9.0~11.0); amine_primary(9.0~11.0)
N[C@@H](Cc1ccc(O)cc1)C(=O)N[C@@H](CCCNC(N)=N)C(O)=O,3.09,22:0:19,carboxylic_acid:amine_primary:amine_primary,L-Tyrosyl-L-arginine,[H₃L]/[H₂L][H],0.1,25.0,22:0:19,carboxylic_acid:amine_primary:amine_primary,22(carboxylic_acid) > 0(amine_primary) > 19(amine_primary),carboxylic_acid,carboxylic_acid(1.5~5.0); amine_primary(9.0~11.0); amine_primary(9.0~11.0)
N[C@@H](Cc1ccc(O)cc1)C(=O)N[C@H](CCCNC(N)=N)C(O)=O,9.82,22:0:19,carboxylic_acid:amine_primary:amine_primary,L-Tyrosyl-D-arginine,[HL]/[L][H],0.1,25.0,22:0:19,carboxylic_acid:amine_primary:amine_primary,22(carboxylic_acid) > 0(amine_primary) > 19(amine_primary),amine_primary,carboxylic_acid(1.5~5.0); amine_primary(9.0~11.0); amine_primary(9.0~11.0)
N[C@@H](Cc1ccc(O)cc1)C(=O)N[C@H](CCCNC(N)=N)C(O)=O,7.62,22:0:19,carboxylic_acid:amine_primary:amine_primary,L-Tyrosyl-D-arginine,[H₂L]/[HL][H],0.1,25.0,22:0:19,carboxylic_acid:amine_primary:amine_primary,22(carboxylic_acid) > 0(amine_primary) > 19(amine_primary),amine_primary,carboxylic_acid(1.5~5.0); amine_primary(9.0~11.0); amine_primary(9.0~11.0)
N[C@@H](Cc1ccc(O)cc1)C(=O)N[C@H](CCCNC(N)=N)C(O)=O,2.81,22:0:19,carboxylic_acid:amine_primary:amine_primary,L-Tyrosyl-D-arginine,[H₃L]/[H₂L][H],0.1,25.0,22:0:19,carboxylic_acid:amine_primary:amine_primary,22(carboxylic_acid) > 0(amine_primary) > 19(amine_primary),carboxylic_acid,carboxylic_acid(1.5~5.0); amine_primary(9.0~11.0); amine_primary(9.0~11.0)
N[C@@H](Cc1ccc(O)cc1)C(=O)N2CCC[C@H]2C(O)=O,9.91,0:7:18,amine_primary:phenol:carboxylic_acid,L-Tyrosyl-L-proline,[HL]/[L][H],0.1,25.0,18:7:0,carboxylic_acid:phenol:amine_primary,18(carboxylic_acid) > 7(phenol) > 0(amine_primary),amine_primary,amine_primary(9.0~11.0); phenol(8.0~11.0); carboxylic_acid(1.5~5.0)
N[C@@H](Cc1ccc(O)cc1)C(=O)N2CCC[C@H]2C(O)=O,7.81,0:7:18,amine_primary:phenol:carboxylic_acid,L-Tyrosyl-L-proline,[H₂L]/[HL][H],0.1,25.0,18:7:0,carboxylic_acid:phenol:amine_primary,18(carboxylic_acid) > 7(phenol) > 0(amine_primary),phenol,amine_primary(9.0~11.0); phenol(8.0~11.0); carboxylic_acid(1.5~5.0)
N[C@@H](Cc1ccc(O)cc1)C(=O)N2CCC[C@H]2C(O)=O,3.19,0:7:18,amine_primary:phenol:carboxylic_acid,L-Tyrosyl-L-proline,[H₃L]/[H₂L][H],0.1,25.0,18:7:0,carboxylic_acid:phenol:amine_primary,18(carboxylic_acid) > 7(phenol) > 0(amine_primary),carboxylic_acid,amine_primary(9.0~11.0); phenol(8.0~11.0); carboxylic_acid(1.5~5.0)
NCCCC[C@H](NC(=O)[C@@H](N)Cc1ccc(O)cc1)C(O)=O,11.01,20:0:10:6,carboxylic_acid:amine_primary:amine_primary:amine_secondary,L-Tyrosyl-L-lysine,[HL]/[L][H],0.1,25.0,20:0:10:6,carboxylic_acid:amine_primary:amine_primary:amine_secondary,20(carboxylic_acid) > 0(amine_primary) > 10(amine_primary) > 6(amine_secondary),amine_secondary,carboxylic_acid(1.5~5.0); amine_primary(9.0~11.0); amine_primary(9.0~11.0); amine_secondary(9.5~11.5)
NCCCC[C@H](NC(=O)[C@@H](N)Cc1ccc(O)cc1)C(O)=O,9.72,20:0:10:6,carboxylic_acid:amine_primary:amine_primary:amine_secondary,L-Tyrosyl-L-lysine,[H₂L]/[HL][H],0.1,25.0,20:0:10:6,carboxylic_acid:amine_primary:amine_primary:amine_secondary,20(carboxylic_acid) > 0(amine_primary) > 10(amine_primary) > 6(amine_secondary),amine_primary,carboxylic_acid(1.5~5.0); amine_primary(9.0~11.0); amine_primary(9.0~11.0); amine_secondary(9.5~11.5)
NCCCC[C@H](NC(=O)[C@@H](N)Cc1ccc(O)cc1)C(O)=O,7.33,20:0:10:6,carboxylic_acid:amine_primary:amine_primary:amine_secondary,L-Tyrosyl-L-lysine,[H₃L]/[H₂L][H],0.1,25.0,20:0:10:6,carboxylic_acid:amine_primary:amine_primary:amine_secondary,20(carboxylic_acid) > 0(amine_primary) > 10(amine_primary) > 6(amine_secondary),amine_primary,carboxylic_acid(1.5~5.0); amine_primary(9.0~11.0); amine_primary(9.0~11.0); amine_secondary(9.5~11.5)
NCCCC[C@H](NC(=O)[C@@H](N)Cc1ccc(O)cc1)C(O)=O,3.34,20:0:10:6,carboxylic_acid:amine_primary:amine_primary:amine_secondary,L-Tyrosyl-L-lysine,[H₄L]/[H₃L][H],0.1,25.0,20:0:10:6,carboxylic_acid:amine_primary:amine_primary:amine_secondary,20(carboxylic_acid) > 0(amine_primary) > 10(amine_primary) > 6(amine_secondary),carboxylic_acid,carboxylic_acid(1.5~5.0); amine_primary(9.0~11.0); amine_primary(9.0~11.0); amine_secondary(9.5~11.5)
NCCCC[C@H](N)C(=O)N[C@@H](Cc1ccc(O)cc1)C(O)=O,11.06,20:0:6:9,carboxylic_acid:amine_primary:amine_primary:amine_secondary,L-Lysyl-L-tyrosine,[HL]/[L][H],0.1,25.0,20:0:6:9,carboxylic_acid:amine_primary:amine_primary:amine_secondary,20(carboxylic_acid) > 0(amine_primary) > 6(amine_primary) > 9(amine_secondary),amine_secondary,carboxylic_acid(1.5~5.0); amine_primary(9.0~11.0); amine_primary(9.0~11.0); amine_secondary(9.5~11.5)
NCCCC[C@H](N)C(=O)N[C@@H](Cc1ccc(O)cc1)C(O)=O,9.79,20:0:6:9,carboxylic_acid:amine_primary:amine_primary:amine_secondary,L-Lysyl-L-tyrosine,[H₂L]/[HL][H],0.1,25.0,20:0:6:9,carboxylic_acid:amine_primary:amine_primary:amine_secondary,20(carboxylic_acid) > 0(amine_primary) > 6(amine_primary) > 9(amine_secondary),amine_primary,carboxylic_acid(1.5~5.0); amine_primary(9.0~11.0); amine_primary(9.0~11.0); amine_secondary(9.5~11.5)
NCCCC[C@H](N)C(=O)N[C@@H](Cc1ccc(O)cc1)C(O)=O,7.47,20:0:6:9,carboxylic_acid:amine_primary:amine_primary:amine_secondary,L-Lysyl-L-tyrosine,[H₃L]/[H₂L][H],0.1,25.0,20:0:6:9,carboxylic_acid:amine_primary:amine_primary:amine_secondary,20(carboxylic_acid) > 0(amine_primary) > 6(amine_primary) > 9(amine_secondary),amine_primary,carboxylic_acid(1.5~5.0); amine_primary(9.0~11.0); amine_primary(9.0~11.0); amine_secondary(9.5~11.5)
NCCCC[C@H](N)C(=O)N[C@@H](Cc1ccc(O)cc1)C(O)=O,3.02,20:0:6:9,carboxylic_acid:amine_primary:amine_primary:amine_secondary,L-Lysyl-L-tyrosine,[H₄L]/[H₃L][H],0.1,25.0,20:0:6:9,carboxylic_acid:amine_primary:amine_primary:amine_secondary,20(carboxylic_acid) > 0(amine_primary) > 6(amine_primary) > 9(amine_secondary),carboxylic_acid,carboxylic_acid(1.5~5.0); amine_primary(9.0~11.0); amine_primary(9.0~11.0); amine_secondary(9.5~11.5)
COC(=O)C(Cc1ccccc1)NC(=O)C(N)CC(O)=O,7.38,19:16,carboxylic_acid:amine_primary,L-1-Aspartyl-L-3-phenylalanine methylester (Aspartame),[HL]/[L][H],0.15,37.0,19:16,carboxylic_acid:amine_primary,19(carboxylic_acid) > 16(amine_primary),amine_primary,carboxylic_acid(1.5~5.0); amine_primary(9.0~11.0)
COC(=O)C(Cc1ccccc1)NC(=O)C(N)CC(O)=O,2.98,19:16,carboxylic_acid:amine_primary,L-1-Aspartyl-L-3-phenylalanine methylester (Aspartame),[H₂L]/[HL][H],0.15,37.0,19:16,carboxylic_acid:amine_primary,19(carboxylic_acid) > 16(amine_primary),carboxylic_acid,carboxylic_acid(1.5~5.0); amine_primary(9.0~11.0)
N[C@@H](CO)C(=O)N[C@@H](CCC(O)=O)C(O)=O,7.42,11:14:0,carboxylic_acid:carboxylic_acid:amine_primary,L-Seryl-L-glutamic acid,[HL]/[L][H],0.1,25.0,11:14:0,carboxylic_acid:carboxylic_acid:amine_primary,11(carboxylic_acid) > 14(carboxylic_acid) > 0(amine_primary),amine_primary,carboxylic_acid(1.5~5.0); carboxylic_acid(1.5~5.0); amine_primary(9.0~11.0)
N[C@@H](CO)C(=O)N[C@@H](CCC(O)=O)C(O)=O,4.34,11:14:0,carboxylic_acid:carboxylic_acid:amine_primary,L-Seryl-L-glutamic acid,[H₂L]/[HL][H],0.1,25.0,11:14:0,carboxylic_acid:carboxylic_acid:amine_primary,11(carboxylic_acid) > 14(carboxylic_acid) > 0(amine_primary),carboxylic_acid,carboxylic_acid(1.5~5.0); carboxylic_acid(1.5~5.0); amine_primary(9.0~11.0)
N[C@@H](CO)C(=O)N[C@@H](CCC(O)=O)C(O)=O,2.94,11:14:0,carboxylic_acid:carboxylic_acid:amine_primary,L-Seryl-L-glutamic acid,[H₃L]/[H₂L][H],0.1,25.0,11:14:0,carboxylic_acid:carboxylic_acid:amine_primary,11(carboxylic_acid) > 14(carboxylic_acid) > 0(amine_primary),carboxylic_acid,carboxylic_acid(1.5~5.0); carboxylic_acid(1.5~5.0); amine_primary(9.0~11.0)
NCCCC[C@H](NC(=O)[C@@H](N)CO)C(O)=O,10.49,14:0:10,carboxylic_acid:amine_primary:amine_primary,L-Seryl-L-lysine,[HL]/[L][H],0.1,25.0,14:0:10,carboxylic_acid:amine_primary:amine_primary,14(carboxylic_acid) > 0(amine_primary) > 10(amine_primary),amine_primary,carboxylic_acid(1.5~5.0); amine_primary(9.0~11.0); amine_primary(9.0~11.0)
NCCCC[C@H](NC(=O)[C@@H](N)CO)C(O)=O,7.16,14:0:10,carboxylic_acid:amine_primary:amine_primary,L-Seryl-L-lysine,[H₂L]/[HL][H],0.1,25.0,14:0:10,carboxylic_acid:amine_primary:amine_primary,14(carboxylic_acid) > 0(amine_primary) > 10(amine_primary),amine_primary,carboxylic_acid(1.5~5.0); amine_primary(9.0~11.0); amine_primary(9.0~11.0)
NCCCC[C@H](NC(=O)[C@@H](N)CO)C(O)=O,2.92,14:0:10,carboxylic_acid:amine_primary:amine_primary,L-Seryl-L-lysine,[H₃L]/[H₂L][H],0.1,25.0,14:0:10,carboxylic_acid:amine_primary:amine_primary,14(carboxylic_acid) > 0(amine_primary) > 10(amine_primary),carboxylic_acid,carboxylic_acid(1.5~5.0); amine_primary(9.0~11.0); amine_primary(9.0~11.0)
C[C@H](NC(=O)[C@@H](N)CCCCN)C(O)=O,10.59,13:6:11,carboxylic_acid:amine_primary:amine_primary,L-Lysyl-L-alanine,[HL]/[L][H],0.1,25.0,13:6:11,carboxylic_acid:amine_primary:amine_primary,13(carboxylic_acid) > 6(amine_primary) > 11(amine_primary),amine_primary,carboxylic_acid(1.5~5.0); amine_primary(9.0~11.0); amine_primary(9.0~11.0)
C[C@H](NC(=O)[C@@H](N)CCCCN)C(O)=O,7.51,13:6:11,carboxylic_acid:amine_primary:amine_primary,L-Lysyl-L-alanine,[H₂L]/[HL][H],0.1,25.0,13:6:11,carboxylic_acid:amine_primary:amine_primary,13(carboxylic_acid) > 6(amine_primary) > 11(amine_primary),amine_primary,carboxylic_acid(1.5~5.0); amine_primary(9.0~11.0); amine_primary(9.0~11.0)
C[C@H](NC(=O)[C@@H](N)CCCCN)C(O)=O,3.11,13:6:11,carboxylic_acid:amine_primary:amine_primary,L-Lysyl-L-alanine,[H₃L]/[H₂L][H],0.1,25.0,13:6:11,carboxylic_acid:amine_primary:amine_primary,13(carboxylic_acid) > 6(amine_primary) > 11(amine_primary),carboxylic_acid,carboxylic_acid(1.5~5.0); amine_primary(9.0~11.0); amine_primary(9.0~11.0)
C[C@@H](NC(=O)[C@@H](N)CCCCN)C(O)=O,10.52,13:6:11,carboxylic_acid:amine_primary:amine_primary,L-Lysyl-D-alanine,[HL]/[L][H],0.1,25.0,13:6:11,carboxylic_acid:amine_primary:amine_primary,13(carboxylic_acid) > 6(amine_primary) > 11(amine_primary),amine_primary,carboxylic_acid(1.5~5.0); amine_primary(9.0~11.0); amine_primary(9.0~11.0)
C[C@@H](NC(=O)[C@@H](N)CCCCN)C(O)=O,7.63,13:6:11,carboxylic_acid:amine_primary:amine_primary,L-Lysyl-D-alanine,[H₂L]/[HL][H],0.1,25.0,13:6:11,carboxylic_acid:amine_primary:amine_primary,13(carboxylic_acid) > 6(amine_primary) > 11(amine_primary),amine_primary,carboxylic_acid(1.5~5.0); amine_primary(9.0~11.0); amine_primary(9.0~11.0)
C[C@@H](NC(=O)[C@@H](N)CCCCN)C(O)=O,2.89,13:6:11,carboxylic_acid:amine_primary:amine_primary,L-Lysyl-D-alanine,[H₃L]/[H₂L][H],0.1,25.0,13:6:11,carboxylic_acid:amine_primary:amine_primary,13(carboxylic_acid) > 6(amine_primary) > 11(amine_primary),carboxylic_acid,carboxylic_acid(1.5~5.0); amine_primary(9.0~11.0); amine_primary(9.0~11.0)
NCCCC[C@H](N)C(=O)N[C@@H](CCCCN)C(O)=O,10.9,17:0:6:15,carboxylic_acid:amine_primary:amine_primary:amine_primary,L-Lysyl-L-lysine,[HL]/[L][H],0.1,25.0,17:0:6:15,carboxylic_acid:amine_primary:amine_primary:amine_primary,17(carboxylic_acid) > 0(amine_primary) > 6(amine_primary) > 15(amine_primary),amine_primary,carboxylic_acid(1.5~5.0); amine_primary(9.0~11.0); amine_primary(9.0~11.0); amine_primary(9.0~11.0)
NCCCC[C@H](N)C(=O)N[C@@H](CCCCN)C(O)=O,9.94,17:0:6:15,carboxylic_acid:amine_primary:amine_primary:amine_primary,L-Lysyl-L-lysine,[H₂L]/[HL][H],0.1,25.0,17:0:6:15,carboxylic_acid:amine_primary:amine_primary:amine_primary,17(carboxylic_acid) > 0(amine_primary) > 6(amine_primary) > 15(amine_primary),amine_primary,carboxylic_acid(1.5~5.0); amine_primary(9.0~11.0); amine_primary(9.0~11.0); amine_primary(9.0~11.0)
NCCCC[C@H](N)C(=O)N[C@@H](CCCCN)C(O)=O,7.42,17:0:6:15,carboxylic_acid:amine_primary:amine_primary:amine_primary,L-Lysyl-L-lysine,[H₃L]/[H₂L][H],0.1,25.0,17:0:6:15,carboxylic_acid:amine_primary:amine_primary:amine_primary,17(carboxylic_acid) > 0(amine_primary) > 6(amine_primary) > 15(amine_primary),amine_primary,carboxylic_acid(1.5~5.0); amine_primary(9.0~11.0); amine_primary(9.0~11.0); amine_primary(9.0~11.0)
NCCCC[C@H](N)C(=O)N[C@@H](CCCCN)C(O)=O,2.9,17:0:6:15,carboxylic_acid:amine_primary:amine_primary:amine_primary,L-Lysyl-L-lysine,[H₄L]/[H₃L][H],0.1,25.0,17:0:6:15,carboxylic_acid:amine_primary:amine_primary:amine_primary,17(carboxylic_acid) > 0(amine_primary) > 6(amine_primary) > 15(amine_primary),carboxylic_acid,carboxylic_acid(1.5~5.0); amine_primary(9.0~11.0); amine_primary(9.0~11.0); amine_primary(9.0~11.0)
NCCCC[C@H](N)C(=O)N[C@H](CCCCN)C(O)=O,10.78,17:0:6:15,carboxylic_acid:amine_primary:amine_primary:amine_primary,L-Lysyl-D-lysine,[HL]/[L][H],0.1,25.0,17:0:6:15,carboxylic_acid:amine_primary:amine_primary:amine_primary,17(carboxylic_acid) > 0(amine_primary) > 6(amine_primary) > 15(amine_primary),amine_primary,carboxylic_acid(1.5~5.0); amine_primary(9.0~11.0); amine_primary(9.0~11.0); amine_primary(9.0~11.0)
NCCCC[C@H](N)C(=O)N[C@H](CCCCN)C(O)=O,9.81,17:0:6:15,carboxylic_acid:amine_primary:amine_primary:amine_primary,L-Lysyl-D-lysine,[H₂L]/[HL][H],0.1,25.0,17:0:6:15,carboxylic_acid:amine_primary:amine_primary:amine_primary,17(carboxylic_acid) > 0(amine_primary) > 6(amine_primary) > 15(amine_primary),amine_primary,carboxylic_acid(1.5~5.0); amine_primary(9.0~11.0); amine_primary(9.0~11.0); amine_primary(9.0~11.0)
NCCCC[C@H](N)C(=O)N[C@H](CCCCN)C(O)=O,7.42,17:0:6:15,carboxylic_acid:amine_primary:amine_primary:amine_primary,L-Lysyl-D-lysine,[H₃L]/[H₂L][H],0.1,25.0,17:0:6:15,carboxylic_acid:amine_primary:amine_primary:amine_primary,17(carboxylic_acid) > 0(amine_primary) > 6(amine_primary) > 15(amine_primary),amine_primary,carboxylic_acid(1.5~5.0); amine_primary(9.0~11.0); amine_primary(9.0~11.0); amine_primary(9.0~11.0)
NCCCC[C@H](N)C(=O)N[C@H](CCCCN)C(O)=O,2.74,17:0:6:15,carboxylic_acid:amine_primary:amine_primary:amine_primary,L-Lysyl-D-lysine,[H₄L]/[H₃L][H],0.1,25.0,17:0:6:15,carboxylic_acid:amine_primary:amine_primary:amine_primary,17(carboxylic_acid) > 0(amine_primary) > 6(amine_primary) > 15(amine_primary),carboxylic_acid,carboxylic_acid(1.5~5.0); amine_primary(9.0~11.0); amine_primary(9.0~11.0); amine_primary(9.0~11.0)
NCCCC[C@H](NC(=O)[C@@H](N)Cc1c[nH]cn1)C(O)=O,10.09,18:0:10:6,carboxylic_acid:amine_primary:amine_primary:amine_secondary,L-Histidyl-L-lysine,[HL]/[L][H],0.1,37.0,18:0:10:6,carboxylic_acid:amine_primary:amine_primary:amine_secondary,18(carboxylic_acid) > 0(amine_primary) > 10(amine_primary) > 6(amine_secondary),amine_primary,carboxylic_acid(1.5~5.0); amine_primary(9.0~11.0); amine_primary(9.0~11.0); amine_secondary(9.5~11.5)