SMILES,pKa,Dissociable_Atoms,Functional_Group,Name,Equilibrium,Ionic,Temperature,Dissociable_Atoms_Ordered,Functional_Group_Ordered,Dissociation_Order,Dissociating_Group,Functional_Group_pKa_Ranges
N[C@@H](Cc1ccc(O)c(O)c1)C(O)=O,8.81,0:7:9:12,amine_primary:phenol:phenol:carboxylic_acid,"L-2-Amino-3-(3,4-dihydroxyphenyl)propanoic acid (DOPA)",[H₃L]/[H₂L][H],0.5,20.0,12:7:9:0,carboxylic_acid:phenol:phenol:amine_primary,12(carboxylic_acid) > 7(phenol) > 9(phenol) > 0(amine_primary),phenol,amine_primary(9.0~11.0); phenol(8.0~11.0); phenol(8.0~11.0); carboxylic_acid(1.5~5.0)
N[C@@H](Cc1ccc(O)c(O)c1)C(O)=O,8.75,0:7:9:12,amine_primary:phenol:phenol:carboxylic_acid,"L-2-Amino-3-(3,4-dihydroxyphenyl)propanoic acid (DOPA)",[H₃L]/[H₂L][H],1.0,25.0,12:7:9:0,carboxylic_acid:phenol:phenol:amine_primary,12(carboxylic_acid) > 7(phenol) > 9(phenol) > 0(amine_primary),phenol,amine_primary(9.0~11.0); phenol(8.0~11.0); phenol(8.0~11.0); carboxylic_acid(1.5~5.0)
N[C@@H](Cc1ccc(O)c(O)c1)C(O)=O,2.2,0:7:9:12,amine_primary:phenol:phenol:carboxylic_acid,"L-2-Amino-3-(3,4-dihydroxyphenyl)propanoic acid (DOPA)",[H₄L]/[H₃L][H],0.1,25.0,12:7:9:0,carboxylic_acid:phenol:phenol:amine_primary,12(carboxylic_acid) > 7(phenol) > 9(phenol) > 0(amine_primary),carboxylic_acid,amine_primary(9.0~11.0); phenol(8.0~11.0); phenol(8.0~11.0); carboxylic_acid(1.5~5.0)
N[C@@H](Cc1ccc(O)c(O)c1)C(O)=O,2.15,0:7:9:12,amine_primary:phenol:phenol:carboxylic_acid,"L-2-Amino-3-(3,4-dihydroxyphenyl)propanoic acid (DOPA)",[H₄L]/[H₃L][H],0.5,25.0,12:7:9:0,carboxylic_acid:phenol:phenol:amine_primary,12(carboxylic_acid) > 7(phenol) > 9(phenol) > 0(amine_primary),carboxylic_acid,amine_primary(9.0~11.0); phenol(8.0~11.0); phenol(8.0~11.0); carboxylic_acid(1.5~5.0)
N[C@@H](Cc1ccc(O)c(O)c1)C(O)=O,2.04,0:7:9:12,amine_primary:phenol:phenol:carboxylic_acid,"L-2-Amino-3-(3,4-dihydroxyphenyl)propanoic acid (DOPA)",[H₄L]/[H₃L][H],0.5,20.0,12:7:9:0,carboxylic_acid:phenol:phenol:amine_primary,12(carboxylic_acid) > 7(phenol) > 9(phenol) > 0(amine_primary),carboxylic_acid,amine_primary(9.0~11.0); phenol(8.0~11.0); phenol(8.0~11.0); carboxylic_acid(1.5~5.0)
N[C@@H](Cc1ccc(O)c(O)c1)C(O)=O,2.35,0:7:9:12,amine_primary:phenol:phenol:carboxylic_acid,"L-2-Amino-3-(3,4-dihydroxyphenyl)propanoic acid (DOPA)",[H₄L]/[H₃L][H],1.0,25.0,12:7:9:0,carboxylic_acid:phenol:phenol:amine_primary,12(carboxylic_acid) > 7(phenol) > 9(phenol) > 0(amine_primary),carboxylic_acid,amine_primary(9.0~11.0); phenol(8.0~11.0); phenol(8.0~11.0); carboxylic_acid(1.5~5.0)
N[C@@H](CO)C(O)=O,9.05,5:0,carboxylic_acid:amine_primary,L-2-Amino-3-hydroxypropanoic acid (Serine),[HL]/[L][H],0.1,25.0,5:0,carboxylic_acid:amine_primary,5(carboxylic_acid) > 0(amine_primary),amine_primary,carboxylic_acid(1.5~5.0); amine_primary(9.0~11.0)
N[C@@H](CO)C(O)=O,8.72,5:0,carboxylic_acid:amine_primary,L-2-Amino-3-hydroxypropanoic acid (Serine),[HL]/[L][H],0.15,37.0,5:0,carboxylic_acid:amine_primary,5(carboxylic_acid) > 0(amine_primary),amine_primary,carboxylic_acid(1.5~5.0); amine_primary(9.0~11.0)
N[C@@H](CO)C(O)=O,9.0,5:0,carboxylic_acid:amine_primary,L-2-Amino-3-hydroxypropanoic acid (Serine),[HL]/[L][H],0.5,25.0,5:0,carboxylic_acid:amine_primary,5(carboxylic_acid) > 0(amine_primary),amine_primary,carboxylic_acid(1.5~5.0); amine_primary(9.0~11.0)
N[C@@H](CO)C(O)=O,9.0,5:0,carboxylic_acid:amine_primary,L-2-Amino-3-hydroxypropanoic acid (Serine),[HL]/[L][H],1.0,25.0,5:0,carboxylic_acid:amine_primary,5(carboxylic_acid) > 0(amine_primary),amine_primary,carboxylic_acid(1.5~5.0); amine_primary(9.0~11.0)
N[C@@H](CO)C(O)=O,9.27,5:0,carboxylic_acid:amine_primary,L-2-Amino-3-hydroxypropanoic acid (Serine),[HL]/[L][H],2.0,25.0,5:0,carboxylic_acid:amine_primary,5(carboxylic_acid) > 0(amine_primary),amine_primary,carboxylic_acid(1.5~5.0); amine_primary(9.0~11.0)
N[C@@H](CO)C(O)=O,9.45,5:0,carboxylic_acid:amine_primary,L-2-Amino-3-hydroxypropanoic acid (Serine),[HL]/[L][H],3.0,25.0,5:0,carboxylic_acid:amine_primary,5(carboxylic_acid) > 0(amine_primary),amine_primary,carboxylic_acid(1.5~5.0); amine_primary(9.0~11.0)
N[C@@H](CO)C(O)=O,9.5,5:0,carboxylic_acid:amine_primary,L-2-Amino-3-hydroxypropanoic acid (Serine),[HL]/[L][H],3.0,25.0,5:0,carboxylic_acid:amine_primary,5(carboxylic_acid) > 0(amine_primary),amine_primary,carboxylic_acid(1.5~5.0); amine_primary(9.0~11.0)
N[C@@H](CO)C(O)=O,9.64,5:0,carboxylic_acid:amine_primary,L-2-Amino-3-hydroxypropanoic acid (Serine),[HL]/[L][H],3.0,25.0,5:0,carboxylic_acid:amine_primary,5(carboxylic_acid) > 0(amine_primary),amine_primary,carboxylic_acid(1.5~5.0); amine_primary(9.0~11.0)
N[C@@H](CO)C(O)=O,9.542,5:0,carboxylic_acid:amine_primary,L-2-Amino-3-hydroxypropanoic acid (Serine),[HL]/[L][H],0.0,12.0,5:0,carboxylic_acid:amine_primary,5(carboxylic_acid) > 0(amine_primary),amine_primary,carboxylic_acid(1.5~5.0); amine_primary(9.0~11.0)
N[C@@H](CO)C(O)=O,9.209,5:0,carboxylic_acid:amine_primary,L-2-Amino-3-hydroxypropanoic acid (Serine),[HL]/[L][H],0.0,25.0,5:0,carboxylic_acid:amine_primary,5(carboxylic_acid) > 0(amine_primary),amine_primary,carboxylic_acid(1.5~5.0); amine_primary(9.0~11.0)
N[C@@H](CO)C(O)=O,8.904,5:0,carboxylic_acid:amine_primary,L-2-Amino-3-hydroxypropanoic acid (Serine),[HL]/[L][H],0.0,37.0,5:0,carboxylic_acid:amine_primary,5(carboxylic_acid) > 0(amine_primary),amine_primary,carboxylic_acid(1.5~5.0); amine_primary(9.0~11.0)
N[C@@H](CO)C(O)=O,2.16,5:0,carboxylic_acid:amine_primary,L-2-Amino-3-hydroxypropanoic acid (Serine),[H₂L]/[HL][H],0.1,25.0,5:0,carboxylic_acid:amine_primary,5(carboxylic_acid) > 0(amine_primary),carboxylic_acid,carboxylic_acid(1.5~5.0); amine_primary(9.0~11.0)
N[C@@H](CO)C(O)=O,2.11,5:0,carboxylic_acid:amine_primary,L-2-Amino-3-hydroxypropanoic acid (Serine),[H₂L]/[HL][H],0.15,37.0,5:0,carboxylic_acid:amine_primary,5(carboxylic_acid) > 0(amine_primary),carboxylic_acid,carboxylic_acid(1.5~5.0); amine_primary(9.0~11.0)
N[C@@H](CO)C(O)=O,2.2,5:0,carboxylic_acid:amine_primary,L-2-Amino-3-hydroxypropanoic acid (Serine),[H₂L]/[HL][H],0.5,25.0,5:0,carboxylic_acid:amine_primary,5(carboxylic_acid) > 0(amine_primary),carboxylic_acid,carboxylic_acid(1.5~5.0); amine_primary(9.0~11.0)
N[C@@H](CO)C(O)=O,2.19,5:0,carboxylic_acid:amine_primary,L-2-Amino-3-hydroxypropanoic acid (Serine),[H₂L]/[HL][H],1.0,25.0,5:0,carboxylic_acid:amine_primary,5(carboxylic_acid) > 0(amine_primary),carboxylic_acid,carboxylic_acid(1.5~5.0); amine_primary(9.0~11.0)
N[C@@H](CO)C(O)=O,2.32,5:0,carboxylic_acid:amine_primary,L-2-Amino-3-hydroxypropanoic acid (Serine),[H₂L]/[HL][H],2.0,25.0,5:0,carboxylic_acid:amine_primary,5(carboxylic_acid) > 0(amine_primary),carboxylic_acid,carboxylic_acid(1.5~5.0); amine_primary(9.0~11.0)
N[C@@H](CO)C(O)=O,2.41,5:0,carboxylic_acid:amine_primary,L-2-Amino-3-hydroxypropanoic acid (Serine),[H₂L]/[HL][H],3.0,25.0,5:0,carboxylic_acid:amine_primary,5(carboxylic_acid) > 0(amine_primary),carboxylic_acid,carboxylic_acid(1.5~5.0); amine_primary(9.0~11.0)
N[C@@H](CO)C(O)=O,2.45,5:0,carboxylic_acid:amine_primary,L-2-Amino-3-hydroxypropanoic acid (Serine),[H₂L]/[HL][H],3.0,25.0,5:0,carboxylic_acid:amine_primary,5(carboxylic_acid) > 0(amine_primary),carboxylic_acid,carboxylic_acid(1.5~5.0); amine_primary(9.0~11.0)
N[C@@H](CO)C(O)=O,2.54,5:0,carboxylic_acid:amine_primary,L-2-Amino-3-hydroxypropanoic acid (Serine),[H₂L]/[HL][H],3.0,25.0,5:0,carboxylic_acid:amine_primary,5(carboxylic_acid) > 0(amine_primary),carboxylic_acid,carboxylic_acid(1.5~5.0); amine_primary(9.0~11.0)
N[C@@H](CO)C(O)=O,2.232,5:0,carboxylic_acid:amine_primary,L-2-Amino-3-hydroxypropanoic acid (Serine),[H₂L]/[HL][H],0.0,12.0,5:0,carboxylic_acid:amine_primary,5(carboxylic_acid) > 0(amine_primary),carboxylic_acid,carboxylic_acid(1.5~5.0); amine_primary(9.0~11.0)
N[C@@H](CO)C(O)=O,2.187,5:0,carboxylic_acid:amine_primary,L-2-Amino-3-hydroxypropanoic acid (Serine),[H₂L]/[HL][H],0.0,25.0,5:0,carboxylic_acid:amine_primary,5(carboxylic_acid) > 0(amine_primary),carboxylic_acid,carboxylic_acid(1.5~5.0); amine_primary(9.0~11.0)
N[C@@H](CO)C(O)=O,2.154,5:0,carboxylic_acid:amine_primary,L-2-Amino-3-hydroxypropanoic acid (Serine),[H₂L]/[HL][H],0.0,37.0,5:0,carboxylic_acid:amine_primary,5(carboxylic_acid) > 0(amine_primary),carboxylic_acid,carboxylic_acid(1.5~5.0); amine_primary(9.0~11.0)
C[C@@H](O)[C@H](N)C(O)=O,8.94,6:4,carboxylic_acid:amine_primary,L-2-Amino-3-hydroxybutanoic acid (Threonine),[HL]/[L][H],0.1,25.0,6:4,carboxylic_acid:amine_primary,6(carboxylic_acid) > 4(amine_primary),amine_primary,carboxylic_acid(1.5~5.0); amine_primary(9.0~11.0)
C[C@@H](O)[C@H](N)C(O)=O,8.58,6:4,carboxylic_acid:amine_primary,L-2-Amino-3-hydroxybutanoic acid (Threonine),[HL]/[L][H],0.15,37.0,6:4,carboxylic_acid:amine_primary,6(carboxylic_acid) > 4(amine_primary),amine_primary,carboxylic_acid(1.5~5.0); amine_primary(9.0~11.0)
C[C@@H](O)[C@H](N)C(O)=O,8.89,6:4,carboxylic_acid:amine_primary,L-2-Amino-3-hydroxybutanoic acid (Threonine),[HL]/[L][H],0.5,25.0,6:4,carboxylic_acid:amine_primary,6(carboxylic_acid) > 4(amine_primary),amine_primary,carboxylic_acid(1.5~5.0); amine_primary(9.0~11.0)
C[C@@H](O)[C@H](N)C(O)=O,8.98,6:4,carboxylic_acid:amine_primary,L-2-Amino-3-hydroxybutanoic acid (Threonine),[HL]/[L][H],1.0,25.0,6:4,carboxylic_acid:amine_primary,6(carboxylic_acid) > 4(amine_primary),amine_primary,carboxylic_acid(1.5~5.0); amine_primary(9.0~11.0)
C[C@@H](O)[C@H](N)C(O)=O,9.19,6:4,carboxylic_acid:amine_primary,L-2-Amino-3-hydroxybutanoic acid (Threonine),[HL]/[L][H],2.0,25.0,6:4,carboxylic_acid:amine_primary,6(carboxylic_acid) > 4(amine_primary),amine_primary,carboxylic_acid(1.5~5.0); amine_primary(9.0~11.0)
C[C@@H](O)[C@H](N)C(O)=O,9.35,6:4,carboxylic_acid:amine_primary,L-2-Amino-3-hydroxybutanoic acid (Threonine),[HL]/[L][H],3.0,25.0,6:4,carboxylic_acid:amine_primary,6(carboxylic_acid) > 4(amine_primary),amine_primary,carboxylic_acid(1.5~5.0); amine_primary(9.0~11.0)
C[C@@H](O)[C@H](N)C(O)=O,9.1,6:4,carboxylic_acid:amine_primary,L-2-Amino-3-hydroxybutanoic acid (Threonine),[HL]/[L][H],0.0,25.0,6:4,carboxylic_acid:amine_primary,6(carboxylic_acid) > 4(amine_primary),amine_primary,carboxylic_acid(1.5~5.0); amine_primary(9.0~11.0)
C[C@@H](O)[C@H](N)C(O)=O,2.2,6:4,carboxylic_acid:amine_primary,L-2-Amino-3-hydroxybutanoic acid (Threonine),[H₂L]/[HL][H],0.1,25.0,6:4,carboxylic_acid:amine_primary,6(carboxylic_acid) > 4(amine_primary),carboxylic_acid,carboxylic_acid(1.5~5.0); amine_primary(9.0~11.0)
C[C@@H](O)[C@H](N)C(O)=O,2.15,6:4,carboxylic_acid:amine_primary,L-2-Amino-3-hydroxybutanoic acid (Threonine),[H₂L]/[HL][H],0.15,37.0,6:4,carboxylic_acid:amine_primary,6(carboxylic_acid) > 4(amine_primary),carboxylic_acid,carboxylic_acid(1.5~5.0); amine_primary(9.0~11.0)
C[C@@H](O)[C@H](N)C(O)=O,2.19,6:4,carboxylic_acid:amine_primary,L-2-Amino-3-hydroxybutanoic acid (Threonine),[H₂L]/[HL][H],0.5,25.0,6:4,carboxylic_acid:amine_primary,6(carboxylic_acid) > 4(amine_primary),carboxylic_acid,carboxylic_acid(1.5~5.0); amine_primary(9.0~11.0)
C[C@@H](O)[C@H](N)C(O)=O,2.24,6:4,carboxylic_acid:amine_primary,L-2-Amino-3-hydroxybutanoic acid (Threonine),[H₂L]/[HL][H],1.0,25.0,6:4,carboxylic_acid:amine_primary,6(carboxylic_acid) > 4(amine_primary),carboxylic_acid,carboxylic_acid(1.5~5.0); amine_primary(9.0~11.0)
C[C@@H](O)[C@H](N)C(O)=O,2.33,6:4,carboxylic_acid:amine_primary,L-2-Amino-3-hydroxybutanoic acid (Threonine),[H₂L]/[HL][H],2.0,25.0,6:4,carboxylic_acid:amine_primary,6(carboxylic_acid) > 4(amine_primary),carboxylic_acid,carboxylic_acid(1.5~5.0); amine_primary(9.0~11.0)
C[C@@H](O)[C@H](N)C(O)=O,2.41,6:4,carboxylic_acid:amine_primary,L-2-Amino-3-hydroxybutanoic acid (Threonine),[H₂L]/[HL][H],3.0,25.0,6:4,carboxylic_acid:amine_primary,6(carboxylic_acid) > 4(amine_primary),carboxylic_acid,carboxylic_acid(1.5~5.0); amine_primary(9.0~11.0)
C[C@@H](O)[C@H](N)C(O)=O,2.088,6:4,carboxylic_acid:amine_primary,L-2-Amino-3-hydroxybutanoic acid (Threonine),[H₂L]/[HL][H],0.0,25.0,6:4,carboxylic_acid:amine_primary,6(carboxylic_acid) > 4(amine_primary),carboxylic_acid,carboxylic_acid(1.5~5.0); amine_primary(9.0~11.0)
C[C@H](O)[C@H](N)C(O)=O,8.92,6:4,carboxylic_acid:amine_primary,allo-L-2-Amino-3-hydroxybutanoic acid (L-allo-Threonine),[HL]/[L][H],0.1,25.0,6:4,carboxylic_acid:amine_primary,6(carboxylic_acid) > 4(amine_primary),amine_primary,carboxylic_acid(1.5~5.0); amine_primary(9.0~11.0)
C[C@H](O)[C@H](N)C(O)=O,8.92,6:4,carboxylic_acid:amine_primary,allo-L-2-Amino-3-hydroxybutanoic acid (L-allo-Threonine),[HL]/[L][H],1.0,25.0,6:4,carboxylic_acid:amine_primary,6(carboxylic_acid) > 4(amine_primary),amine_primary,carboxylic_acid(1.5~5.0); amine_primary(9.0~11.0)
C[C@H](O)[C@H](N)C(O)=O,9.096,6:4,carboxylic_acid:amine_primary,allo-L-2-Amino-3-hydroxybutanoic acid (L-allo-Threonine),[HL]/[L][H],0.0,25.0,6:4,carboxylic_acid:amine_primary,6(carboxylic_acid) > 4(amine_primary),amine_primary,carboxylic_acid(1.5~5.0); amine_primary(9.0~11.0)
C[C@H](O)[C@H](N)C(O)=O,2.11,6:4,carboxylic_acid:amine_primary,allo-L-2-Amino-3-hydroxybutanoic acid (L-allo-Threonine),[H₂L]/[HL][H],0.1,25.0,6:4,carboxylic_acid:amine_primary,6(carboxylic_acid) > 4(amine_primary),carboxylic_acid,carboxylic_acid(1.5~5.0); amine_primary(9.0~11.0)
C[C@H](O)[C@H](N)C(O)=O,2.09,6:4,carboxylic_acid:amine_primary,allo-L-2-Amino-3-hydroxybutanoic acid (L-allo-Threonine),[H₂L]/[HL][H],1.0,25.0,6:4,carboxylic_acid:amine_primary,6(carboxylic_acid) > 4(amine_primary),carboxylic_acid,carboxylic_acid(1.5~5.0); amine_primary(9.0~11.0)
C[C@H](O)[C@H](N)C(O)=O,2.108,6:4,carboxylic_acid:amine_primary,allo-L-2-Amino-3-hydroxybutanoic acid (L-allo-Threonine),[H₂L]/[HL][H],0.0,25.0,6:4,carboxylic_acid:amine_primary,6(carboxylic_acid) > 4(amine_primary),carboxylic_acid,carboxylic_acid(1.5~5.0); amine_primary(9.0~11.0)
N[C@@H](CCO)C(O)=O,9.28,6:0,carboxylic_acid:amine_primary,L-2-Amino-4-hydroxybutanoic acid (Homoserine),[HL]/[L][H],0.1,25.0,6:0,carboxylic_acid:amine_primary,6(carboxylic_acid) > 0(amine_primary),amine_primary,carboxylic_acid(1.5~5.0); amine_primary(9.0~11.0)
N[C@@H](CCO)C(O)=O,9.33,6:0,carboxylic_acid:amine_primary,L-2-Amino-4-hydroxybutanoic acid (Homoserine),[HL]/[L][H],1.0,25.0,6:0,carboxylic_acid:amine_primary,6(carboxylic_acid) > 0(amine_primary),amine_primary,carboxylic_acid(1.5~5.0); amine_primary(9.0~11.0)
N[C@@H](CCO)C(O)=O,9.5,6:0,carboxylic_acid:amine_primary,L-2-Amino-4-hydroxybutanoic acid (Homoserine),[HL]/[L][H],2.0,25.0,6:0,carboxylic_acid:amine_primary,6(carboxylic_acid) > 0(amine_primary),amine_primary,carboxylic_acid(1.5~5.0); amine_primary(9.0~11.0)
N[C@@H](CCO)C(O)=O,2.24,6:0,carboxylic_acid:amine_primary,L-2-Amino-4-hydroxybutanoic acid (Homoserine),[H₂L]/[HL][H],0.1,25.0,6:0,carboxylic_acid:amine_primary,6(carboxylic_acid) > 0(amine_primary),carboxylic_acid,carboxylic_acid(1.5~5.0); amine_primary(9.0~11.0)
N[C@@H](CCO)C(O)=O,2.34,6:0,carboxylic_acid:amine_primary,L-2-Amino-4-hydroxybutanoic acid (Homoserine),[H₂L]/[HL][H],1.0,25.0,6:0,carboxylic_acid:amine_primary,6(carboxylic_acid) > 0(amine_primary),carboxylic_acid,carboxylic_acid(1.5~5.0); amine_primary(9.0~11.0)
N[C@@H](CCO)C(O)=O,2.45,6:0,carboxylic_acid:amine_primary,L-2-Amino-4-hydroxybutanoic acid (Homoserine),[H₂L]/[HL][H],2.0,25.0,6:0,carboxylic_acid:amine_primary,6(carboxylic_acid) > 0(amine_primary),carboxylic_acid,carboxylic_acid(1.5~5.0); amine_primary(9.0~11.0)
NCC(O)C(O)=O,9.13,5:0,carboxylic_acid:amine_primary,DL-3-Amino-2-hydroxypropanoic acid (Isoserine),[HL]/[L][H],0.1,25.0,5:0,carboxylic_acid:amine_primary,5(carboxylic_acid) > 0(amine_primary),amine_primary,carboxylic_acid(1.5~5.0); amine_primary(9.0~11.0)
NCC(O)C(O)=O,2.66,5:0,carboxylic_acid:amine_primary,DL-3-Amino-2-hydroxypropanoic acid (Isoserine),[H₂L]/[HL][H],0.1,25.0,5:0,carboxylic_acid:amine_primary,5(carboxylic_acid) > 0(amine_primary),carboxylic_acid,carboxylic_acid(1.5~5.0); amine_primary(9.0~11.0)
NC(C(O)C(O)C(O)CO)C(O)=O,9.08,11:0,carboxylic_acid:amine_primary,"D-gluco-2-Amino-3,4,5,6-tetrahydroxyhexanoic acid (D-Glucosaminic acid)",[HL]/[L][H],0.1,25.0,11:0,carboxylic_acid:amine_primary,11(carboxylic_acid) > 0(amine_primary),amine_primary,carboxylic_acid(1.5~5.0); amine_primary(9.0~11.0)
NC(C(O)C(O)C(O)CO)C(O)=O,2.2,11:0,carboxylic_acid:amine_primary,"D-gluco-2-Amino-3,4,5,6-tetrahydroxyhexanoic acid (D-Glucosaminic acid)",[H₂L]/[HL][H],0.1,25.0,11:0,carboxylic_acid:amine_primary,11(carboxylic_acid) > 0(amine_primary),carboxylic_acid,carboxylic_acid(1.5~5.0); amine_primary(9.0~11.0)
COc1ccc(NCC(O)=O)cc1,9.07,6:9,amine_secondary:carboxylic_acid,DL-Amino-4-Methoxyphenylacetic acid (4-Methoxyphenylglycine),[HL]/[L][H],0.1,25.0,9:6,carboxylic_acid:amine_secondary,9(carboxylic_acid) > 6(amine_secondary),amine_secondary,amine_secondary(9.5~11.5); carboxylic_acid(1.5~5.0)
COc1ccc(NCC(O)=O)cc1,2.0,6:9,amine_secondary:carboxylic_acid,DL-Amino-4-Methoxyphenylacetic acid (4-Methoxyphenylglycine),[H₂L]/[HL][H],0.1,25.0,9:6,carboxylic_acid:amine_secondary,9(carboxylic_acid) > 6(amine_secondary),carboxylic_acid,amine_secondary(9.5~11.5); carboxylic_acid(1.5~5.0)
COC(=O)C[C@H](N)C([O-])=O,8.5,8,carboxylic_acid,L-2-Aminobutanedioic acid 4-methyl ester (4-Methyl aspartate),[HL]/[L][H],0.1,25.0,8,carboxylic_acid,8(carboxylic_acid),carboxylic_acid,carboxylic_acid(1.5~5.0)
CCOC(=O)CC[C@H](N)C([O-])=O,9.19,8:10,amine_primary:carboxylic_acid,DL-2-Aminopentanedioic acid 5-ethyl ester (5-Ethyl glutamate),[HL]/[L][H],0.0,25.0,10:8,carboxylic_acid:amine_primary,10(carboxylic_acid) > 8(amine_primary),amine_primary,amine_primary(9.0~11.0); carboxylic_acid(1.5~5.0)
CCOC(=O)CC[C@H](N)C([O-])=O,2.15,8:10,amine_primary:carboxylic_acid,DL-2-Aminopentanedioic acid 5-ethyl ester (5-Ethyl glutamate),[H₂L]/[HL][H],0.0,25.0,10:8,carboxylic_acid:amine_primary,10(carboxylic_acid) > 8(amine_primary),carboxylic_acid,amine_primary(9.0~11.0); carboxylic_acid(1.5~5.0)
N[C@@H](CCC(=O)OCc1ccccc1)C([O-])=O,8.89,0:15,amine_primary:carboxylic_acid,L-2-Aminopentanedioic acid 5-benzyl ester (5-Benzyl glutamate),[HL]/[L][H],0.1,25.0,15:0,carboxylic_acid:amine_primary,15(carboxylic_acid) > 0(amine_primary),amine_primary,amine_primary(9.0~11.0); carboxylic_acid(1.5~5.0)
N[C@@H](CCC(=O)OCc1ccccc1)C([O-])=O,2.06,0:15,amine_primary:carboxylic_acid,L-2-Aminopentanedioic acid 5-benzyl ester (5-Benzyl glutamate),[H₂L]/[HL][H],0.1,25.0,15:0,carboxylic_acid:amine_primary,15(carboxylic_acid) > 0(amine_primary),carboxylic_acid,amine_primary(9.0~11.0); carboxylic_acid(1.5~5.0)
CCOC(=O)[C@@H](N)CCC([O-])=O,7.84,6:10,amine_primary:carboxylic_acid,DL-2-Aminopentanedioic acid 1-ethyl ester (1-Ethyl glutamate),[HL]/[L][H],0.0,25.0,10:6,carboxylic_acid:amine_primary,10(carboxylic_acid) > 6(amine_primary),amine_primary,amine_primary(9.0~11.0); carboxylic_acid(1.5~5.0)
CCOC(=O)[C@@H](N)CCC([O-])=O,3.85,6:10,amine_primary:carboxylic_acid,DL-2-Aminopentanedioic acid 1-ethyl ester (1-Ethyl glutamate),[H₂L]/[HL][H],0.0,25.0,10:6,carboxylic_acid:amine_primary,10(carboxylic_acid) > 6(amine_primary),carboxylic_acid,amine_primary(9.0~11.0); carboxylic_acid(1.5~5.0)
N[C@@H](CC(N)=O)C(O)=O,8.73,7:0,carboxylic_acid:amine_primary,L-2-Aminobutanedioic acid 4-amide (Asparagine),[HL]/[L][H],0.1,25.0,7:0,carboxylic_acid:amine_primary,7(carboxylic_acid) > 0(amine_primary),amine_primary,carboxylic_acid(1.5~5.0); amine_primary(9.0~11.0)
N[C@@H](CC(N)=O)C(O)=O,8.46,7:0,carboxylic_acid:amine_primary,L-2-Aminobutanedioic acid 4-amide (Asparagine),[HL]/[L][H],0.15,37.0,7:0,carboxylic_acid:amine_primary,7(carboxylic_acid) > 0(amine_primary),amine_primary,carboxylic_acid(1.5~5.0); amine_primary(9.0~11.0)
N[C@@H](CC(N)=O)C(O)=O,8.64,7:0,carboxylic_acid:amine_primary,L-2-Aminobutanedioic acid 4-amide (Asparagine),[HL]/[L][H],0.5,25.0,7:0,carboxylic_acid:amine_primary,7(carboxylic_acid) > 0(amine_primary),amine_primary,carboxylic_acid(1.5~5.0); amine_primary(9.0~11.0)
N[C@@H](CC(N)=O)C(O)=O,8.69,7:0,carboxylic_acid:amine_primary,L-2-Aminobutanedioic acid 4-amide (Asparagine),[HL]/[L][H],1.0,25.0,7:0,carboxylic_acid:amine_primary,7(carboxylic_acid) > 0(amine_primary),amine_primary,carboxylic_acid(1.5~5.0); amine_primary(9.0~11.0)