SMILES,pKa,Dissociable_Atoms,Functional_Group,Name,Equilibrium,Ionic,Temperature,Dissociable_Atoms_Ordered,Functional_Group_Ordered,Dissociation_Order,Dissociating_Group,Functional_Group_pKa_Ranges
NCCCc1ccccc1,10.32,0,amine_primary,3-Phenylpropylamine,[HL]/[L][H],0.1,25.0,0,amine_primary,0(amine_primary),amine_primary,amine_primary(9.0~11.0)
NCCCc1ccccc1,10.36,0,amine_primary,3-Phenylpropylamine,[HL]/[L][H],0.1,20.0,0,amine_primary,0(amine_primary),amine_primary,amine_primary(9.0~11.0)
NCCCCc1ccccc1,10.42,0,amine_primary,4-Phenylbutylamine,[HL]/[L][H],0.1,25.0,0,amine_primary,0(amine_primary),amine_primary,amine_primary(9.0~11.0)
NCCCCc1ccccc1,10.61,0,amine_primary,4-Phenylbutylamine,[HL]/[L][H],0.1,20.0,0,amine_primary,0(amine_primary),amine_primary,amine_primary(9.0~11.0)
NCCCCCc1ccccc1,10.55,0,amine_primary,5-Phenylpentylamine,[HL]/[L][H],0.1,25.0,0,amine_primary,0(amine_primary),amine_primary,amine_primary(9.0~11.0)
NCC[S](O)(=O)=O,8.9,0:4,amine_primary:alcohol,2-Aminoethanesulfonic acid (Taurine),[HL]/[L][H],0.1,25.0,0:4,amine_primary:alcohol,0(amine_primary) > 4(alcohol),amine_primary,amine_primary(9.0~11.0); alcohol(15.0~18.0)
NCC[S](O)(=O)=O,8.8,0:4,amine_primary:alcohol,2-Aminoethanesulfonic acid (Taurine),[HL]/[L][H],0.5,25.0,0:4,amine_primary:alcohol,0(amine_primary) > 4(alcohol),amine_primary,amine_primary(9.0~11.0); alcohol(15.0~18.0)
NCC[S](O)(=O)=O,9.316,0:4,amine_primary:alcohol,2-Aminoethanesulfonic acid (Taurine),[HL]/[L][H],0.0,15.0,0:4,amine_primary:alcohol,0(amine_primary) > 4(alcohol),amine_primary,amine_primary(9.0~11.0); alcohol(15.0~18.0)
NCC[S](O)(=O)=O,9.061,0:4,amine_primary:alcohol,2-Aminoethanesulfonic acid (Taurine),[HL]/[L][H],0.0,25.0,0:4,amine_primary:alcohol,0(amine_primary) > 4(alcohol),amine_primary,amine_primary(9.0~11.0); alcohol(15.0~18.0)
NCC[S](O)(=O)=O,8.823,0:4,amine_primary:alcohol,2-Aminoethanesulfonic acid (Taurine),[HL]/[L][H],0.0,35.0,0:4,amine_primary:alcohol,0(amine_primary) > 4(alcohol),amine_primary,amine_primary(9.0~11.0); alcohol(15.0~18.0)
NCC[S](O)(=O)=O,0.33,0:4,amine_primary:alcohol,2-Aminoethanesulfonic acid (Taurine),[H₂L]/[HL][H],0.0,25.0,0:4,amine_primary:alcohol,0(amine_primary) > 4(alcohol),amine_primary,amine_primary(9.0~11.0); alcohol(15.0~18.0)
NCCC[S](O)(=O)=O,9.74,0,amine_primary,3-Aminopropanesulfonic acid,[HL]/[L][H],0.5,25.0,0,amine_primary,0(amine_primary),amine_primary,amine_primary(9.0~11.0)
NCCCC[S](O)(=O)=O,10.24,0,amine_primary,4-Aminobutanesulfonic acid,[HL]/[L][H],0.5,25.0,0,amine_primary,0(amine_primary),amine_primary,amine_primary(9.0~11.0)
NCCCCC[S](O)(=O)=O,10.46,0,amine_primary,5-Aminopentanesulfonic acid,[HL]/[L][H],0.5,25.0,0,amine_primary,0(amine_primary),amine_primary,amine_primary(9.0~11.0)
NCCc1ccccc1O,9.27,0:9,amine_primary:phenol,2-(2-Aminoethyl)phenol,[H₂L]/[HL][H],1.0,25.0,9:0,phenol:amine_primary,9(phenol) > 0(amine_primary),phenol,amine_primary(9.0~11.0); phenol(8.0~11.0)
NCCc1cccc(O)c1,10.47,0:8,amine_primary:phenol,3-(2-Aminoethyl)phenol,[HL]/[L][H],0.1,25.0,8:0,phenol:amine_primary,8(phenol) > 0(amine_primary),amine_primary,amine_primary(9.0~11.0); phenol(8.0~11.0)
NCCc1cccc(O)c1,10.3,0:8,amine_primary:phenol,3-(2-Aminoethyl)phenol,[HL]/[L][H],1.0,25.0,8:0,phenol:amine_primary,8(phenol) > 0(amine_primary),amine_primary,amine_primary(9.0~11.0); phenol(8.0~11.0)
NCCc1cccc(O)c1,9.34,0:8,amine_primary:phenol,3-(2-Aminoethyl)phenol,[H₂L]/[HL][H],0.1,25.0,8:0,phenol:amine_primary,8(phenol) > 0(amine_primary),phenol,amine_primary(9.0~11.0); phenol(8.0~11.0)
NCCc1cccc(O)c1,9.28,0:8,amine_primary:phenol,3-(2-Aminoethyl)phenol,[H₂L]/[HL][H],1.0,25.0,8:0,phenol:amine_primary,8(phenol) > 0(amine_primary),phenol,amine_primary(9.0~11.0); phenol(8.0~11.0)
NCCc1ccc(O)cc1,10.52,0:7,amine_primary:phenol,4-(2-Aminoethyl)phenol (Tyramine),[HL]/[L][H],0.1,25.0,7:0,phenol:amine_primary,7(phenol) > 0(amine_primary),amine_primary,amine_primary(9.0~11.0); phenol(8.0~11.0)
NCCc1ccc(O)cc1,10.41,0:7,amine_primary:phenol,4-(2-Aminoethyl)phenol (Tyramine),[HL]/[L][H],0.5,25.0,7:0,phenol:amine_primary,7(phenol) > 0(amine_primary),amine_primary,amine_primary(9.0~11.0); phenol(8.0~11.0)
NCCc1ccc(O)cc1,10.57,0:7,amine_primary:phenol,4-(2-Aminoethyl)phenol (Tyramine),[HL]/[L][H],1.0,25.0,7:0,phenol:amine_primary,7(phenol) > 0(amine_primary),amine_primary,amine_primary(9.0~11.0); phenol(8.0~11.0)
NCCc1ccc(O)cc1,9.43,0:7,amine_primary:phenol,4-(2-Aminoethyl)phenol (Tyramine),[H₂L]/[HL][H],0.1,25.0,7:0,phenol:amine_primary,7(phenol) > 0(amine_primary),phenol,amine_primary(9.0~11.0); phenol(8.0~11.0)
NCCc1ccc(O)cc1,9.33,0:7,amine_primary:phenol,4-(2-Aminoethyl)phenol (Tyramine),[H₂L]/[HL][H],0.5,25.0,7:0,phenol:amine_primary,7(phenol) > 0(amine_primary),phenol,amine_primary(9.0~11.0); phenol(8.0~11.0)
NCCc1ccc(O)cc1,9.45,0:7,amine_primary:phenol,4-(2-Aminoethyl)phenol (Tyramine),[H₂L]/[HL][H],1.0,25.0,7:0,phenol:amine_primary,7(phenol) > 0(amine_primary),phenol,amine_primary(9.0~11.0); phenol(8.0~11.0)
NC[C@H](O)c1ccc(O)cc1,9.88,0:8,amine_primary:phenol,DL-2-Amino-1-(4-hydroxyphenyl)ethanol (Octopamine),[HL]/[L][H],0.1,25.0,8:0,phenol:amine_primary,8(phenol) > 0(amine_primary),amine_primary,amine_primary(9.0~11.0); phenol(8.0~11.0)
NC[C@H](O)c1ccc(O)cc1,9.94,0:8,amine_primary:phenol,DL-2-Amino-1-(4-hydroxyphenyl)ethanol (Octopamine),[HL]/[L][H],1.0,25.0,8:0,phenol:amine_primary,8(phenol) > 0(amine_primary),amine_primary,amine_primary(9.0~11.0); phenol(8.0~11.0)
NC[C@H](O)c1ccc(O)cc1,8.8,0:8,amine_primary:phenol,DL-2-Amino-1-(4-hydroxyphenyl)ethanol (Octopamine),[H₂L]/[HL][H],0.1,25.0,8:0,phenol:amine_primary,8(phenol) > 0(amine_primary),phenol,amine_primary(9.0~11.0); phenol(8.0~11.0)
NC[C@H](O)c1ccc(O)cc1,8.89,0:8,amine_primary:phenol,DL-2-Amino-1-(4-hydroxyphenyl)ethanol (Octopamine),[H₂L]/[HL][H],1.0,25.0,8:0,phenol:amine_primary,8(phenol) > 0(amine_primary),phenol,amine_primary(9.0~11.0); phenol(8.0~11.0)
N[C@H](CO)Cc1ccc(O)cc1,9.98,0:9,amine_primary:phenol,DL-2-Amino-3-(4-hydroxyphenyl)propanol (Tyrosinol),[HL]/[L][H],0.1,25.0,9:0,phenol:amine_primary,9(phenol) > 0(amine_primary),amine_primary,amine_primary(9.0~11.0); phenol(8.0~11.0)
N[C@H](CO)Cc1ccc(O)cc1,8.94,0:9,amine_primary:phenol,DL-2-Amino-3-(4-hydroxyphenyl)propanol (Tyrosinol),[H₂L]/[HL][H],0.1,25.0,9:0,phenol:amine_primary,9(phenol) > 0(amine_primary),phenol,amine_primary(9.0~11.0); phenol(8.0~11.0)
COc1cc(CCN)ccc1O,10.47,7:11,amine_primary:phenol,4-(2-Aminoethyl)-2-methoxyphenol,[HL]/[L][H],0.1,25.0,11:7,phenol:amine_primary,11(phenol) > 7(amine_primary),amine_primary,amine_primary(9.0~11.0); phenol(8.0~11.0)
COc1cc(CCN)ccc1O,9.34,7:11,amine_primary:phenol,4-(2-Aminoethyl)-2-methoxyphenol,[H₂L]/[HL][H],0.1,25.0,11:7,phenol:amine_primary,11(phenol) > 7(amine_primary),phenol,amine_primary(9.0~11.0); phenol(8.0~11.0)
COc1ccc(CCN)cc1O,10.38,8:11,amine_primary:phenol,5-(2-Aminoethyl)-2-methoxyphenol,[HL]/[L][H],0.1,25.0,11:8,phenol:amine_primary,11(phenol) > 8(amine_primary),amine_primary,amine_primary(9.0~11.0); phenol(8.0~11.0)
COc1ccc(CCN)cc1O,9.23,8:11,amine_primary:phenol,5-(2-Aminoethyl)-2-methoxyphenol,[H₂L]/[HL][H],0.1,25.0,11:8,phenol:amine_primary,11(phenol) > 8(amine_primary),phenol,amine_primary(9.0~11.0); phenol(8.0~11.0)
COC(=O)C(N)Cc1ccc(O)cc1,9.89,5:11,amine_primary:phenol,DL-Tyrosine methyl ester,[HL]/[L][H],0.1,25.0,11:5,phenol:amine_primary,11(phenol) > 5(amine_primary),amine_primary,amine_primary(9.0~11.0); phenol(8.0~11.0)
COC(=O)C(N)Cc1ccc(O)cc1,7.09,5:11,amine_primary:phenol,DL-Tyrosine methyl ester,[H₂L]/[HL][H],0.1,25.0,11:5,phenol:amine_primary,11(phenol) > 5(amine_primary),phenol,amine_primary(9.0~11.0); phenol(8.0~11.0)
CCOC(=O)[C@@H](N)Cc1ccc(O)cc1,9.68,6:12,amine_primary:phenol,L-Tyrosine ethyl ester,[HL]/[L][H],0.1,25.0,12:6,phenol:amine_primary,12(phenol) > 6(amine_primary),phenol,amine_primary(9.0~11.0); phenol(8.0~11.0)
CCOC(=O)[C@@H](N)Cc1ccc(O)cc1,9.71,6:12,amine_primary:phenol,L-Tyrosine ethyl ester,[HL]/[L][H],0.5,20.0,12:6,phenol:amine_primary,12(phenol) > 6(amine_primary),phenol,amine_primary(9.0~11.0); phenol(8.0~11.0)
CCOC(=O)[C@@H](N)Cc1ccc(O)cc1,7.21,6:12,amine_primary:phenol,L-Tyrosine ethyl ester,[H₂L]/[HL][H],0.1,25.0,12:6,phenol:amine_primary,12(phenol) > 6(amine_primary),phenol,amine_primary(9.0~11.0); phenol(8.0~11.0)
CCOC(=O)[C@@H](N)Cc1ccc(O)cc1,7.37,6:12,amine_primary:phenol,L-Tyrosine ethyl ester,[H₂L]/[HL][H],0.5,20.0,12:6,phenol:amine_primary,12(phenol) > 6(amine_primary),phenol,amine_primary(9.0~11.0); phenol(8.0~11.0)
N[C@@H](Cc1ccc(O)cc1)C(N)=O,9.83,0:11,amine_primary:amine_primary,L-Tyrosinamide,[HL]/[L][H],0.1,25.0,0:11,amine_primary:amine_primary,0(amine_primary) > 11(amine_primary),amine_primary,amine_primary(9.0~11.0); amine_primary(9.0~11.0)
N[C@@H](Cc1ccc(O)cc1)C(N)=O,7.42,0:11,amine_primary:amine_primary,L-Tyrosinamide,[H₂L]/[HL][H],0.1,25.0,0:11,amine_primary:amine_primary,0(amine_primary) > 11(amine_primary),amine_primary,amine_primary(9.0~11.0); amine_primary(9.0~11.0)
CNC(=O)[C@H](Cc1ccc(O)cc1)NC(=O)CNC(=O)CN,9.85,21:1,amine_primary:amine_secondary,Glycylglycyl-L-tyrosine methylamide,[HL]/[L][H],0.1,25.0,21:1,amine_primary:amine_secondary,21(amine_primary) > 1(amine_secondary),amine_primary,amine_primary(9.0~11.0); amine_secondary(9.5~11.5)
CNC(=O)[C@H](Cc1ccc(O)cc1)NC(=O)CNC(=O)CN,7.94,21:1,amine_primary:amine_secondary,Glycylglycyl-L-tyrosine methylamide,[H₂L]/[HL][H],0.1,25.0,21:1,amine_primary:amine_secondary,21(amine_primary) > 1(amine_secondary),amine_primary,amine_primary(9.0~11.0); amine_secondary(9.5~11.5)
CNC(=O)[C@H](CCSC)NC(=O)[C@H](Cc1ccccc1)NC(=O)CNC(=O)CNC(=O)[C@@H](N)Cc2ccc(O)cc2,9.78,32:1,amine_primary:amine_secondary,L-Tyrosylglycylglycyl-L-phenylalanyl-L-methionine methylamide,[HL]/[L][H],0.1,25.0,32:1,amine_primary:amine_secondary,32(amine_primary) > 1(amine_secondary),amine_primary,amine_primary(9.0~11.0); amine_secondary(9.5~11.5)
CNC(=O)[C@H](CCSC)NC(=O)[C@H](Cc1ccccc1)NC(=O)CNC(=O)CNC(=O)[C@@H](N)Cc2ccc(O)cc2,7.01,32:1,amine_primary:amine_secondary,L-Tyrosylglycylglycyl-L-phenylalanyl-L-methionine methylamide,[H₂L]/[HL][H],0.1,25.0,32:1,amine_primary:amine_secondary,32(amine_primary) > 1(amine_secondary),amine_primary,amine_primary(9.0~11.0); amine_secondary(9.5~11.5)
NCCc1ccc(O)c(O)c1,13.1,0:7:9,amine_primary:phenol:phenol,"2-(3,4-Dihydroxyphenyl)ethylamine (Dopamine)",[HL]/[L][H],0.1,25.0,7:9:0,phenol:phenol:amine_primary,7(phenol) > 9(phenol) > 0(amine_primary),amine_primary,amine_primary(9.0~11.0); phenol(8.0~11.0); phenol(8.0~11.0)
NCCc1ccc(O)c(O)c1,13.4,0:7:9,amine_primary:phenol:phenol,"2-(3,4-Dihydroxyphenyl)ethylamine (Dopamine)",[HL]/[L][H],0.5,25.0,7:9:0,phenol:phenol:amine_primary,7(phenol) > 9(phenol) > 0(amine_primary),amine_primary,amine_primary(9.0~11.0); phenol(8.0~11.0); phenol(8.0~11.0)
NCCc1ccc(O)c(O)c1,13.4,0:7:9,amine_primary:phenol:phenol,"2-(3,4-Dihydroxyphenyl)ethylamine (Dopamine)",[HL]/[L][H],2.0,25.0,7:9:0,phenol:phenol:amine_primary,7(phenol) > 9(phenol) > 0(amine_primary),amine_primary,amine_primary(9.0~11.0); phenol(8.0~11.0); phenol(8.0~11.0)
NCCc1ccc(O)c(O)c1,10.41,0:7:9,amine_primary:phenol:phenol,"2-(3,4-Dihydroxyphenyl)ethylamine (Dopamine)",[H₂L]/[HL][H],0.1,25.0,7:9:0,phenol:phenol:amine_primary,7(phenol) > 9(phenol) > 0(amine_primary),amine_primary,amine_primary(9.0~11.0); phenol(8.0~11.0); phenol(8.0~11.0)
NCCc1ccc(O)c(O)c1,10.6,0:7:9,amine_primary:phenol:phenol,"2-(3,4-Dihydroxyphenyl)ethylamine (Dopamine)",[H₂L]/[HL][H],0.5,20.0,7:9:0,phenol:phenol:amine_primary,7(phenol) > 9(phenol) > 0(amine_primary),amine_primary,amine_primary(9.0~11.0); phenol(8.0~11.0); phenol(8.0~11.0)
NCCc1ccc(O)c(O)c1,10.48,0:7:9,amine_primary:phenol:phenol,"2-(3,4-Dihydroxyphenyl)ethylamine (Dopamine)",[H₂L]/[HL][H],0.5,25.0,7:9:0,phenol:phenol:amine_primary,7(phenol) > 9(phenol) > 0(amine_primary),amine_primary,amine_primary(9.0~11.0); phenol(8.0~11.0); phenol(8.0~11.0)
NCCc1ccc(O)c(O)c1,10.52,0:7:9,amine_primary:phenol:phenol,"2-(3,4-Dihydroxyphenyl)ethylamine (Dopamine)",[H₂L]/[HL][H],1.0,25.0,7:9:0,phenol:phenol:amine_primary,7(phenol) > 9(phenol) > 0(amine_primary),amine_primary,amine_primary(9.0~11.0); phenol(8.0~11.0); phenol(8.0~11.0)
NCCc1ccc(O)c(O)c1,8.88,0:7:9,amine_primary:phenol:phenol,"2-(3,4-Dihydroxyphenyl)ethylamine (Dopamine)",[H₃L]/[H₂L][H],0.1,25.0,7:9:0,phenol:phenol:amine_primary,7(phenol) > 9(phenol) > 0(amine_primary),phenol,amine_primary(9.0~11.0); phenol(8.0~11.0); phenol(8.0~11.0)
NCCc1ccc(O)c(O)c1,9.06,0:7:9,amine_primary:phenol:phenol,"2-(3,4-Dihydroxyphenyl)ethylamine (Dopamine)",[H₃L]/[H₂L][H],0.5,20.0,7:9:0,phenol:phenol:amine_primary,7(phenol) > 9(phenol) > 0(amine_primary),phenol,amine_primary(9.0~11.0); phenol(8.0~11.0); phenol(8.0~11.0)
NCCc1ccc(O)c(O)c1,8.93,0:7:9,amine_primary:phenol:phenol,"2-(3,4-Dihydroxyphenyl)ethylamine (Dopamine)",[H₃L]/[H₂L][H],0.5,25.0,7:9:0,phenol:phenol:amine_primary,7(phenol) > 9(phenol) > 0(amine_primary),phenol,amine_primary(9.0~11.0); phenol(8.0~11.0); phenol(8.0~11.0)
NCCc1ccc(O)c(O)c1,9.0,0:7:9,amine_primary:phenol:phenol,"2-(3,4-Dihydroxyphenyl)ethylamine (Dopamine)",[H₃L]/[H₂L][H],1.0,25.0,7:9:0,phenol:phenol:amine_primary,7(phenol) > 9(phenol) > 0(amine_primary),phenol,amine_primary(9.0~11.0); phenol(8.0~11.0); phenol(8.0~11.0)
NCC(O)c1ccc(O)c(O)c1,12.9,0:8:10,amine_primary:phenol:phenol,"L-2-Amino-1-(3,4-Dihydroxyphenyl)ethanol (Noradrenaline) (Norepinephrine)",[HL]/[L][H],0.1,25.0,8:10:0,phenol:phenol:amine_primary,8(phenol) > 10(phenol) > 0(amine_primary),amine_primary,amine_primary(9.0~11.0); phenol(8.0~11.0); phenol(8.0~11.0)
NCC(O)c1ccc(O)c(O)c1,9.62,0:8:10,amine_primary:phenol:phenol,"L-2-Amino-1-(3,4-Dihydroxyphenyl)ethanol (Noradrenaline) (Norepinephrine)",[H₂L]/[HL][H],0.1,25.0,8:10:0,phenol:phenol:amine_primary,8(phenol) > 10(phenol) > 0(amine_primary),phenol,amine_primary(9.0~11.0); phenol(8.0~11.0); phenol(8.0~11.0)
NCC(O)c1ccc(O)c(O)c1,9.59,0:8:10,amine_primary:phenol:phenol,"L-2-Amino-1-(3,4-Dihydroxyphenyl)ethanol (Noradrenaline) (Norepinephrine)",[H₂L]/[HL][H],0.5,20.0,8:10:0,phenol:phenol:amine_primary,8(phenol) > 10(phenol) > 0(amine_primary),phenol,amine_primary(9.0~11.0); phenol(8.0~11.0); phenol(8.0~11.0)
NCC(O)c1ccc(O)c(O)c1,9.73,0:8:10,amine_primary:phenol:phenol,"L-2-Amino-1-(3,4-Dihydroxyphenyl)ethanol (Noradrenaline) (Norepinephrine)",[H₂L]/[HL][H],1.0,25.0,8:10:0,phenol:phenol:amine_primary,8(phenol) > 10(phenol) > 0(amine_primary),phenol,amine_primary(9.0~11.0); phenol(8.0~11.0); phenol(8.0~11.0)
NCC(O)c1ccc(O)c(O)c1,8.61,0:8:10,amine_primary:phenol:phenol,"L-2-Amino-1-(3,4-Dihydroxyphenyl)ethanol (Noradrenaline) (Norepinephrine)",[H₃L]/[H₂L][H],0.1,25.0,8:10:0,phenol:phenol:amine_primary,8(phenol) > 10(phenol) > 0(amine_primary),phenol,amine_primary(9.0~11.0); phenol(8.0~11.0); phenol(8.0~11.0)
NCC(O)c1ccc(O)c(O)c1,8.73,0:8:10,amine_primary:phenol:phenol,"L-2-Amino-1-(3,4-Dihydroxyphenyl)ethanol (Noradrenaline) (Norepinephrine)",[H₃L]/[H₂L][H],0.5,20.0,8:10:0,phenol:phenol:amine_primary,8(phenol) > 10(phenol) > 0(amine_primary),phenol,amine_primary(9.0~11.0); phenol(8.0~11.0); phenol(8.0~11.0)
NCC(O)c1ccc(O)c(O)c1,8.57,0:8:10,amine_primary:phenol:phenol,"L-2-Amino-1-(3,4-Dihydroxyphenyl)ethanol (Noradrenaline) (Norepinephrine)",[H₃L]/[H₂L][H],1.0,25.0,8:10:0,phenol:phenol:amine_primary,8(phenol) > 10(phenol) > 0(amine_primary),phenol,amine_primary(9.0~11.0); phenol(8.0~11.0); phenol(8.0~11.0)
NCCO,9.52,0,amine_primary,2-Aminoethanol (Ethanolamine),[HL]/[L][H],0.1,25.0,0,amine_primary,0(amine_primary),amine_primary,amine_primary(9.0~11.0)
NCCO,9.62,0,amine_primary,2-Aminoethanol (Ethanolamine),[HL]/[L][H],0.5,25.0,0,amine_primary,0(amine_primary),amine_primary,amine_primary(9.0~11.0)
NCCO,9.79,0,amine_primary,2-Aminoethanol (Ethanolamine),[HL]/[L][H],1.0,25.0,0,amine_primary,0(amine_primary),amine_primary,amine_primary(9.0~11.0)
NCCO,10.04,0,amine_primary,2-Aminoethanol (Ethanolamine),[HL]/[L][H],2.0,25.0,0,amine_primary,0(amine_primary),amine_primary,amine_primary(9.0~11.0)
NCCO,9.806,0,amine_primary,2-Aminoethanol (Ethanolamine),[HL]/[L][H],0.0,15.0,0,amine_primary,0(amine_primary),amine_primary,amine_primary(9.0~11.0)
NCCO,9.499,0,amine_primary,2-Aminoethanol (Ethanolamine),[HL]/[L][H],0.0,25.0,0,amine_primary,0(amine_primary),amine_primary,amine_primary(9.0~11.0)
NCCO,9.208,0,amine_primary,2-Aminoethanol (Ethanolamine),[HL]/[L][H],0.0,35.0,0,amine_primary,0(amine_primary),amine_primary,amine_primary(9.0~11.0)
CC(O)CN,9.49,4,amine_primary,DL-1-Amino-2-propanol,[HL]/[L][H],0.1,25.0,4,amine_primary,4(amine_primary),amine_primary,amine_primary(9.0~11.0)
CC(O)CN,9.6,4,amine_primary,DL-1-Amino-2-propanol,[HL]/[L][H],0.5,25.0,4,amine_primary,4(amine_primary),amine_primary,amine_primary(9.0~11.0)
CC(O)CN,9.74,4,amine_primary,DL-1-Amino-2-propanol,[HL]/[L][H],1.0,25.0,4,amine_primary,4(amine_primary),amine_primary,amine_primary(9.0~11.0)
CC(O)CN,10.02,4,amine_primary,DL-1-Amino-2-propanol,[HL]/[L][H],2.0,25.0,4,amine_primary,4(amine_primary),amine_primary,amine_primary(9.0~11.0)
CC(O)CN,9.932,4,amine_primary,DL-1-Amino-2-propanol,[HL]/[L][H],0.0,10.0,4,amine_primary,4(amine_primary),amine_primary,amine_primary(9.0~11.0)
CC(O)CN,9.464,4,amine_primary,DL-1-Amino-2-propanol,[HL]/[L][H],0.0,25.0,4,amine_primary,4(amine_primary),amine_primary,amine_primary(9.0~11.0)
CC(O)CN,9.041,4,amine_primary,DL-1-Amino-2-propanol,[HL]/[L][H],0.0,40.0,4,amine_primary,4(amine_primary),amine_primary,amine_primary(9.0~11.0)
NCCCO,10.11,0,amine_primary,3-Aminopropanol,[HL]/[L][H],0.1,25.0,0,amine_primary,0(amine_primary),amine_primary,amine_primary(9.0~11.0)
NCCCO,10.23,0,amine_primary,3-Aminopropanol,[HL]/[L][H],0.5,25.0,0,amine_primary,0(amine_primary),amine_primary,amine_primary(9.0~11.0)
NCCCO,10.41,0,amine_primary,3-Aminopropanol,[HL]/[L][H],1.0,25.0,0,amine_primary,0(amine_primary),amine_primary,amine_primary(9.0~11.0)
NCCCO,10.65,0,amine_primary,3-Aminopropanol,[HL]/[L][H],2.0,25.0,0,amine_primary,0(amine_primary),amine_primary,amine_primary(9.0~11.0)
NCCCO,10.088,0,amine_primary,3-Aminopropanol,[HL]/[L][H],0.0,25.0,0,amine_primary,0(amine_primary),amine_primary,amine_primary(9.0~11.0)
NCCCCO,10.38,0,amine_primary,4-Aminobutanol,[HL]/[L][H],0.5,25.0,0,amine_primary,0(amine_primary),amine_primary,amine_primary(9.0~11.0)
NCCCCO,10.61,0,amine_primary,4-Aminobutanol,[HL]/[L][H],0.5,20.0,0,amine_primary,0(amine_primary),amine_primary,amine_primary(9.0~11.0)
NCCCCO,10.38,0,amine_primary,4-Aminobutanol,[HL]/[L][H],0.0,20.0,0,amine_primary,0(amine_primary),amine_primary,amine_primary(9.0~11.0)
NCCCCCO,10.91,0,amine_primary,5-Aminopentanol,[HL]/[L][H],0.5,20.0,0,amine_primary,0(amine_primary),amine_primary,amine_primary(9.0~11.0)
NCCCCCO,10.61,0,amine_primary,5-Aminopentanol,[HL]/[L][H],0.0,20.0,0,amine_primary,0(amine_primary),amine_primary,amine_primary(9.0~11.0)
NCCCCCCO,10.81,0,amine_primary,6-Aminohexanol,[HL]/[L][H],0.5,25.0,0,amine_primary,0(amine_primary),amine_primary,amine_primary(9.0~11.0)
CC(C)(N)CO,9.72,3,amine_primary,2-Amino-2-methylpropanol,[HL]/[L][H],0.1,25.0,3,amine_primary,3(amine_primary),amine_primary,amine_primary(9.0~11.0)
CC(C)(N)CO,9.81,3,amine_primary,2-Amino-2-methylpropanol,[HL]/[L][H],0.5,25.0,3,amine_primary,3(amine_primary),amine_primary,amine_primary(9.0~11.0)
CC(C)(N)CO,9.93,3,amine_primary,2-Amino-2-methylpropanol,[HL]/[L][H],1.0,25.0,3,amine_primary,3(amine_primary),amine_primary,amine_primary(9.0~11.0)
CC(C)(N)CO,10.16,3,amine_primary,2-Amino-2-methylpropanol,[HL]/[L][H],2.0,25.0,3,amine_primary,3(amine_primary),amine_primary,amine_primary(9.0~11.0)
CC(C)(N)CO,10.194,3,amine_primary,2-Amino-2-methylpropanol,[HL]/[L][H],0.0,10.0,3,amine_primary,3(amine_primary),amine_primary,amine_primary(9.0~11.0)
CC(C)(N)CO,9.694,3,amine_primary,2-Amino-2-methylpropanol,[HL]/[L][H],0.0,25.0,3,amine_primary,3(amine_primary),amine_primary,amine_primary(9.0~11.0)
CC(C)(N)CO,9.24,3,amine_primary,2-Amino-2-methylpropanol,[HL]/[L][H],0.0,40.0,3,amine_primary,3(amine_primary),amine_primary,amine_primary(9.0~11.0)