SMILES,pKa,Dissociable_Atoms,Functional_Group,Name,Equilibrium,Ionic,Temperature,Dissociable_Atoms_Ordered,Functional_Group_Ordered,Dissociation_Order,Dissociating_Group,Functional_Group_pKa_Ranges
CC(C)C[C@H](N)C(=O)NO,7.26,5:8,amine_primary:amine_secondary,L-2-Amino-4-methylpentanohydroxamic acid (Leucinehydroxamic acid),[H₂L]/[HL][H],0.5,25.0,5:8,amine_primary:amine_secondary,5(amine_primary) > 8(amine_secondary),amine_primary,amine_primary(9.0~11.0); amine_secondary(9.5~11.5)
CC[C@H](C)[C@H](N)C(=O)NO,9.15,5:8,amine_primary:amine_secondary,L-2-Amino-3-methylpentanohydroxamic acid (Isoleucinehydroxamic acid),[HL]/[L][H],0.5,25.0,5:8,amine_primary:amine_secondary,5(amine_primary) > 8(amine_secondary),amine_primary,amine_primary(9.0~11.0); amine_secondary(9.5~11.5)
CC[C@H](C)[C@H](N)C(=O)NO,7.25,5:8,amine_primary:amine_secondary,L-2-Amino-3-methylpentanohydroxamic acid (Isoleucinehydroxamic acid),[H₂L]/[HL][H],0.5,25.0,5:8,amine_primary:amine_secondary,5(amine_primary) > 8(amine_secondary),amine_primary,amine_primary(9.0~11.0); amine_secondary(9.5~11.5)
N[C@@H](Cc1ccccc1)C(=O)NO,9.01,0:11,amine_primary:amine_secondary,DL-2-Amino-3-phenylpropanohydroxamic acid (Phenylalaninehydroxamic acid),[HL]/[L][H],0.5,25.0,0:11,amine_primary:amine_secondary,0(amine_primary) > 11(amine_secondary),amine_primary,amine_primary(9.0~11.0); amine_secondary(9.5~11.5)
N[C@@H](Cc1ccccc1)C(=O)NO,6.89,0:11,amine_primary:amine_secondary,DL-2-Amino-3-phenylpropanohydroxamic acid (Phenylalaninehydroxamic acid),[H₂L]/[HL][H],0.5,25.0,0:11,amine_primary:amine_secondary,0(amine_primary) > 11(amine_secondary),amine_primary,amine_primary(9.0~11.0); amine_secondary(9.5~11.5)
NCCC(=O)NO,9.59,0:5,amine_primary:amine_secondary,3-Aminopropanohydroxamic acid (beta-Alaninehydroxamic acid),[HL]/[L][H],0.1,25.0,0:5,amine_primary:amine_secondary,0(amine_primary) > 5(amine_secondary),amine_primary,amine_primary(9.0~11.0); amine_secondary(9.5~11.5)
NCCC(=O)NO,9.63,0:5,amine_primary:amine_secondary,3-Aminopropanohydroxamic acid (beta-Alaninehydroxamic acid),[HL]/[L][H],1.0,25.0,0:5,amine_primary:amine_secondary,0(amine_primary) > 5(amine_secondary),amine_primary,amine_primary(9.0~11.0); amine_secondary(9.5~11.5)
NCCC(=O)NO,8.32,0:5,amine_primary:amine_secondary,3-Aminopropanohydroxamic acid (beta-Alaninehydroxamic acid),[H₂L]/[HL][H],0.1,25.0,0:5,amine_primary:amine_secondary,0(amine_primary) > 5(amine_secondary),amine_primary,amine_primary(9.0~11.0); amine_secondary(9.5~11.5)
NCCC(=O)NO,8.37,0:5,amine_primary:amine_secondary,3-Aminopropanohydroxamic acid (beta-Alaninehydroxamic acid),[H₂L]/[HL][H],1.0,25.0,0:5,amine_primary:amine_secondary,0(amine_primary) > 5(amine_secondary),amine_primary,amine_primary(9.0~11.0); amine_secondary(9.5~11.5)
N[C@@H](Cc1ccc(O)cc1)C(=O)NO,9.93,0:12:7,amine_primary:amine_secondary:phenol,L-2-Amino-3-(4-hydroxyphenyl)propanohydroxamic acid (Tyrosinehydroxamic acid),[HL]/[L][H],0.5,25.0,7:0:12,phenol:amine_primary:amine_secondary,7(phenol) > 0(amine_primary) > 12(amine_secondary),amine_primary,amine_primary(9.0~11.0); amine_secondary(9.5~11.5); phenol(8.0~11.0)
N[C@@H](Cc1ccc(O)cc1)C(=O)NO,8.92,0:12:7,amine_primary:amine_secondary:phenol,L-2-Amino-3-(4-hydroxyphenyl)propanohydroxamic acid (Tyrosinehydroxamic acid),[H₂L]/[HL][H],0.5,25.0,7:0:12,phenol:amine_primary:amine_secondary,7(phenol) > 0(amine_primary) > 12(amine_secondary),phenol,amine_primary(9.0~11.0); amine_secondary(9.5~11.5); phenol(8.0~11.0)
N[C@@H](Cc1ccc(O)cc1)C(=O)NO,6.96,0:12:7,amine_primary:amine_secondary:phenol,L-2-Amino-3-(4-hydroxyphenyl)propanohydroxamic acid (Tyrosinehydroxamic acid),[H₃L]/[H₂L][H],0.5,25.0,7:0:12,phenol:amine_primary:amine_secondary,7(phenol) > 0(amine_primary) > 12(amine_secondary),phenol,amine_primary(9.0~11.0); amine_secondary(9.5~11.5); phenol(8.0~11.0)
N[C@@H](CO)C(=O)NO,9.04,0:6,amine_primary:amine_secondary,DL-2-Amino-3-hydroxypropanohydroxamic acid (Serinehydroxamic acid),[HL]/[L][H],0.1,25.0,0:6,amine_primary:amine_secondary,0(amine_primary) > 6(amine_secondary),amine_primary,amine_primary(9.0~11.0); amine_secondary(9.5~11.5)
N[C@@H](CO)C(=O)NO,8.9,0:6,amine_primary:amine_secondary,DL-2-Amino-3-hydroxypropanohydroxamic acid (Serinehydroxamic acid),[HL]/[L][H],0.5,25.0,0:6,amine_primary:amine_secondary,0(amine_primary) > 6(amine_secondary),amine_primary,amine_primary(9.0~11.0); amine_secondary(9.5~11.5)
N[C@@H](CO)C(=O)NO,6.8,0:6,amine_primary:amine_secondary,DL-2-Amino-3-hydroxypropanohydroxamic acid (Serinehydroxamic acid),[H₂L]/[HL][H],0.1,25.0,0:6,amine_primary:amine_secondary,0(amine_primary) > 6(amine_secondary),amine_primary,amine_primary(9.0~11.0); amine_secondary(9.5~11.5)
N[C@@H](CO)C(=O)NO,6.77,0:6,amine_primary:amine_secondary,DL-2-Amino-3-hydroxypropanohydroxamic acid (Serinehydroxamic acid),[H₂L]/[HL][H],0.5,25.0,0:6,amine_primary:amine_secondary,0(amine_primary) > 6(amine_secondary),amine_primary,amine_primary(9.0~11.0); amine_secondary(9.5~11.5)
C[C@@H](O)[C@H](N)C(=O)NO,8.89,4:7,amine_primary:amine_secondary,DL-2-Amino-3-hydroxybutanohydroxamic acid (Threoninehydroxamic acid),[HL]/[L][H],0.1,25.0,4:7,amine_primary:amine_secondary,4(amine_primary) > 7(amine_secondary),amine_primary,amine_primary(9.0~11.0); amine_secondary(9.5~11.5)
C[C@@H](O)[C@H](N)C(=O)NO,8.87,4:7,amine_primary:amine_secondary,DL-2-Amino-3-hydroxybutanohydroxamic acid (Threoninehydroxamic acid),[HL]/[L][H],0.5,25.0,4:7,amine_primary:amine_secondary,4(amine_primary) > 7(amine_secondary),amine_primary,amine_primary(9.0~11.0); amine_secondary(9.5~11.5)
C[C@@H](O)[C@H](N)C(=O)NO,6.92,4:7,amine_primary:amine_secondary,DL-2-Amino-3-hydroxybutanohydroxamic acid (Threoninehydroxamic acid),[H₂L]/[HL][H],0.1,25.0,4:7,amine_primary:amine_secondary,4(amine_primary) > 7(amine_secondary),amine_primary,amine_primary(9.0~11.0); amine_secondary(9.5~11.5)
C[C@@H](O)[C@H](N)C(=O)NO,6.77,4:7,amine_primary:amine_secondary,DL-2-Amino-3-hydroxybutanohydroxamic acid (Threoninehydroxamic acid),[H₂L]/[HL][H],0.5,25.0,4:7,amine_primary:amine_secondary,4(amine_primary) > 7(amine_secondary),amine_primary,amine_primary(9.0~11.0); amine_secondary(9.5~11.5)
N[C@@H](Cc1c[nH]c2ccccc12)C(=O)NO,9.09,0:5,amine_primary:amine_secondary,DL-2-Amino-3-(3-indole)propanohydroxamic acid (Tryptophanhydroxamic acid),[HL]/[L][H],0.5,25.0,0:5,amine_primary:amine_secondary,0(amine_primary) > 5(amine_secondary),amine_primary,amine_primary(9.0~11.0); amine_secondary(9.5~11.5)
N[C@@H](Cc1c[nH]c2ccccc12)C(=O)NO,7.04,0:5,amine_primary:amine_secondary,DL-2-Amino-3-(3-indole)propanohydroxamic acid (Tryptophanhydroxamic acid),[H₂L]/[HL][H],0.5,25.0,0:5,amine_primary:amine_secondary,0(amine_primary) > 5(amine_secondary),amine_primary,amine_primary(9.0~11.0); amine_secondary(9.5~11.5)
N[C@@H](CCCNC(N)=N)C(=O)NO,13.23,0:7:5,amine_primary:amine_primary:amine_secondary,L-2-Amino-5-guanidopentanohydroxamic acid (Argininehydroxamic acid),[HL]/[L][H],0.5,25.0,0:7:5,amine_primary:amine_primary:amine_secondary,0(amine_primary) > 7(amine_primary) > 5(amine_secondary),amine_secondary,amine_primary(9.0~11.0); amine_primary(9.0~11.0); amine_secondary(9.5~11.5)
N[C@@H](CCCNC(N)=N)C(=O)NO,8.84,0:7:5,amine_primary:amine_primary:amine_secondary,L-2-Amino-5-guanidopentanohydroxamic acid (Argininehydroxamic acid),[H₂L]/[HL][H],0.5,25.0,0:7:5,amine_primary:amine_primary:amine_secondary,0(amine_primary) > 7(amine_primary) > 5(amine_secondary),amine_primary,amine_primary(9.0~11.0); amine_primary(9.0~11.0); amine_secondary(9.5~11.5)
N[C@@H](CCCNC(N)=N)C(=O)NO,6.88,0:7:5,amine_primary:amine_primary:amine_secondary,L-2-Amino-5-guanidopentanohydroxamic acid (Argininehydroxamic acid),[H₃L]/[H₂L][H],0.5,25.0,0:7:5,amine_primary:amine_primary:amine_secondary,0(amine_primary) > 7(amine_primary) > 5(amine_secondary),amine_primary,amine_primary(9.0~11.0); amine_primary(9.0~11.0); amine_secondary(9.5~11.5)
NCC(=O)NCC(=O)NO,8.4,0:4,amine_primary:amine_secondary,Glycylglycinehydroxamic acid,[HL]/[L][H],0.1,25.0,0:4,amine_primary:amine_secondary,0(amine_primary) > 4(amine_secondary),amine_primary,amine_primary(9.0~11.0); amine_secondary(9.5~11.5)
NCC(=O)NCC(=O)NO,7.52,0:4,amine_primary:amine_secondary,Glycylglycinehydroxamic acid,[H₂L]/[HL][H],0.1,25.0,0:4,amine_primary:amine_secondary,0(amine_primary) > 4(amine_secondary),amine_primary,amine_primary(9.0~11.0); amine_secondary(9.5~11.5)
NCC(=O)NCC(=O)NCC(=O)NO,8.4,0:4,amine_primary:amine_secondary,Glycylglycylglycinehydroxamic acid,[HL]/[L][H],0.1,25.0,0:4,amine_primary:amine_secondary,0(amine_primary) > 4(amine_secondary),amine_primary,amine_primary(9.0~11.0); amine_secondary(9.5~11.5)
NCC(=O)NCC(=O)NCC(=O)NO,7.51,0:4,amine_primary:amine_secondary,Glycylglycylglycinehydroxamic acid,[H₂L]/[HL][H],0.1,25.0,0:4,amine_primary:amine_secondary,0(amine_primary) > 4(amine_secondary),amine_primary,amine_primary(9.0~11.0); amine_secondary(9.5~11.5)
CC(=NO)C(C)(C)N,8.99,7,amine_primary,2-Amino-2-methylbutan-3-one oxime,[HL]/[L][H],0.5,25.0,7,amine_primary,7(amine_primary),amine_primary,amine_primary(9.0~11.0)
NCC(N)=NO,7.94,0:3,amine_primary:amine_primary,2-Aminoacetamidoxime,[HL]/[L][H],1.0,25.0,0:3,amine_primary:amine_primary,0(amine_primary) > 3(amine_primary),amine_primary,amine_primary(9.0~11.0); amine_primary(9.0~11.0)
NCC(N)=NO,2.47,0:3,amine_primary:amine_primary,2-Aminoacetamidoxime,[H₂L]/[HL][H],1.0,25.0,0:3,amine_primary:amine_primary,0(amine_primary) > 3(amine_primary),amine_primary,amine_primary(9.0~11.0); amine_primary(9.0~11.0)
NCCS,10.73,0:3,amine_primary:thiol,2-Aminoethanethiol (2-Mercaptoethylamine),[HL]/[L][H],0.1,25.0,3:0,thiol:amine_primary,3(thiol) > 0(amine_primary),amine_primary,amine_primary(9.0~11.0); thiol(8.0~11.0)
NCCS,10.81,0:3,amine_primary:thiol,2-Aminoethanethiol (2-Mercaptoethylamine),[HL]/[L][H],0.5,20.0,3:0,thiol:amine_primary,3(thiol) > 0(amine_primary),amine_primary,amine_primary(9.0~11.0); thiol(8.0~11.0)
NCCS,10.69,0:3,amine_primary:thiol,2-Aminoethanethiol (2-Mercaptoethylamine),[HL]/[L][H],1.0,30.0,3:0,thiol:amine_primary,3(thiol) > 0(amine_primary),amine_primary,amine_primary(9.0~11.0); thiol(8.0~11.0)
NCCS,8.21,0:3,amine_primary:thiol,2-Aminoethanethiol (2-Mercaptoethylamine),[H₂L]/[HL][H],0.1,25.0,3:0,thiol:amine_primary,3(thiol) > 0(amine_primary),thiol,amine_primary(9.0~11.0); thiol(8.0~11.0)
NCCS,8.39,0:3,amine_primary:thiol,2-Aminoethanethiol (2-Mercaptoethylamine),[H₂L]/[HL][H],0.5,20.0,3:0,thiol:amine_primary,3(thiol) > 0(amine_primary),thiol,amine_primary(9.0~11.0); thiol(8.0~11.0)
NCCS,8.28,0:3,amine_primary:thiol,2-Aminoethanethiol (2-Mercaptoethylamine),[H₂L]/[HL][H],1.0,30.0,3:0,thiol:amine_primary,3(thiol) > 0(amine_primary),thiol,amine_primary(9.0~11.0); thiol(8.0~11.0)
COC(=O)[C@@H](N)CS,8.93,5:7,amine_primary:thiol,L-Cysteine methyl ester,[HL]/[L][H],0.1,25.0,7:5,thiol:amine_primary,7(thiol) > 5(amine_primary),thiol,amine_primary(9.0~11.0); thiol(8.0~11.0)
COC(=O)[C@@H](N)CS,6.53,5:7,amine_primary:thiol,L-Cysteine methyl ester,[H₂L]/[HL][H],0.1,25.0,7:5,thiol:amine_primary,7(thiol) > 5(amine_primary),thiol,amine_primary(9.0~11.0); thiol(8.0~11.0)
CCOC(=O)[C@@H](N)CS,8.96,6:8,amine_primary:thiol,L-Cysteine ethyl ester,[HL]/[L][H],0.1,25.0,8:6,thiol:amine_primary,8(thiol) > 6(amine_primary),thiol,amine_primary(9.0~11.0); thiol(8.0~11.0)
CCOC(=O)[C@@H](N)CS,8.91,6:8,amine_primary:thiol,L-Cysteine ethyl ester,[HL]/[L][H],0.5,30.0,8:6,thiol:amine_primary,8(thiol) > 6(amine_primary),thiol,amine_primary(9.0~11.0); thiol(8.0~11.0)
CCOC(=O)[C@@H](N)CS,6.55,6:8,amine_primary:thiol,L-Cysteine ethyl ester,[H₂L]/[HL][H],0.1,25.0,8:6,thiol:amine_primary,8(thiol) > 6(amine_primary),thiol,amine_primary(9.0~11.0); thiol(8.0~11.0)
CCOC(=O)[C@@H](N)CS,6.39,6:8,amine_primary:thiol,L-Cysteine ethyl ester,[H₂L]/[HL][H],0.5,30.0,8:6,thiol:amine_primary,8(thiol) > 6(amine_primary),thiol,amine_primary(9.0~11.0); thiol(8.0~11.0)
CSCCN,9.44,4,amine_primary,2-(Methylthio)ethylamine,[HL]/[L][H],0.1,20.0,4,amine_primary,4(amine_primary),amine_primary,amine_primary(9.0~11.0)
CSCCN,9.47,4,amine_primary,2-(Methylthio)ethylamine,[HL]/[L][H],0.5,25.0,4,amine_primary,4(amine_primary),amine_primary,amine_primary(9.0~11.0)
CSCCN,9.45,4,amine_primary,2-(Methylthio)ethylamine,[HL]/[L][H],1.0,30.0,4,amine_primary,4(amine_primary),amine_primary,amine_primary(9.0~11.0)
CSCCN,9.34,4,amine_primary,2-(Methylthio)ethylamine,[HL]/[L][H],0.0,25.0,4,amine_primary,4(amine_primary),amine_primary,amine_primary(9.0~11.0)
CCSCCN,9.44,5,amine_primary,2-(Ethylthio)ethylamine,[HL]/[L][H],0.5,25.0,5,amine_primary,5(amine_primary),amine_primary,amine_primary(9.0~11.0)
CCCSCCN,9.45,6,amine_primary,2-(Propylthio)ethylamine,[HL]/[L][H],0.5,25.0,6,amine_primary,6(amine_primary),amine_primary,amine_primary(9.0~11.0)
CC(C)(C)SCCN,9.34,7,amine_primary,2-(2-Methyl-2-propylthio)ethylamine,[HL]/[L][H],0.5,25.0,7,amine_primary,7(amine_primary),amine_primary,amine_primary(9.0~11.0)
CSCCCN,10.1,5,amine_primary,3-(Methylthio)propylamine,[HL]/[L][H],0.5,25.0,5,amine_primary,5(amine_primary),amine_primary,amine_primary(9.0~11.0)
NCCSCCO,9.37,0,amine_primary,2-(2-Aminoethylthio)ethanol,[HL]/[L][H],0.5,25.0,0,amine_primary,0(amine_primary),amine_primary,amine_primary(9.0~11.0)
NCCSCCO,9.18,0,amine_primary,2-(2-Aminoethylthio)ethanol,[HL]/[L][H],1.0,30.0,0,amine_primary,0(amine_primary),amine_primary,amine_primary(9.0~11.0)
NCCSCCO,9.26,0,amine_primary,2-(2-Aminoethylthio)ethanol,[HL]/[L][H],0.0,25.0,0,amine_primary,0(amine_primary),amine_primary,amine_primary(9.0~11.0)
CNC(=O)[C@@H](N)CCSC,7.33,5,amine_primary,L-Methionine methylamide,[HL]/[L][H],0.1,25.0,5,amine_primary,5(amine_primary),amine_primary,amine_primary(9.0~11.0)
CNC(=O)[C@H](CCSC)NC(=O)[C@@H](N)Cc1ccccc1,7.15,13,amine_primary,L-Phenylalanyl-L-methionine methylamide,[HL]/[L][H],0.1,25.0,13,amine_primary,13(amine_primary),amine_primary,amine_primary(9.0~11.0)
COC(=O)C(N)CCSC,7.1,5,amine_primary,DL-Methionine methyl ester,[HL]/[L][H],0.1,25.0,5,amine_primary,5(amine_primary),amine_primary,amine_primary(9.0~11.0)
NCC[SeH],10.88,3,selenium_hydride,2-Aminoethaneselenol,[HL]/[L][H],0.1,22.0,3,selenium_hydride,3(selenium_hydride),Unknown,selenium_hydride(Unknown)
NCC[SeH],4.9,3,selenium_hydride,2-Aminoethaneselenol,[H₂L]/[HL][H],0.1,22.0,3,selenium_hydride,3(selenium_hydride),Unknown,selenium_hydride(Unknown)
CC([SeH])CN,10.74,3,selenium_hydride,1-Aminopropane-2-selenol,[HL]/[L][H],0.1,22.0,3,selenium_hydride,3(selenium_hydride),Unknown,selenium_hydride(Unknown)
CC([SeH])CN,5.08,3,selenium_hydride,1-Aminopropane-2-selenol,[H₂L]/[HL][H],0.1,22.0,3,selenium_hydride,3(selenium_hydride),Unknown,selenium_hydride(Unknown)
CC(C)([SeH])CN,10.84,6,selenium_hydride,1-Amino-2-methylpropane-2-selenol,[HL]/[L][H],0.1,22.0,6,selenium_hydride,6(selenium_hydride),Unknown,selenium_hydride(Unknown)
CC(C)([SeH])CN,5.1,6,selenium_hydride,1-Amino-2-methylpropane-2-selenol,[H₂L]/[HL][H],0.1,22.0,6,selenium_hydride,6(selenium_hydride),Unknown,selenium_hydride(Unknown)
NCCC[SeH],11.2,4,selenium_hydride,3-Aminopropaneselenol,[HL]/[L][H],0.1,22.0,4,selenium_hydride,4(selenium_hydride),Unknown,selenium_hydride(Unknown)
NCCC[SeH],6.16,4,selenium_hydride,3-Aminopropaneselenol,[H₂L]/[HL][H],0.1,22.0,4,selenium_hydride,4(selenium_hydride),Unknown,selenium_hydride(Unknown)
C[Se]CCN,9.42,4,amine_primary,2-(Methylseleno)ethylamine,[HL]/[L][H],0.1,22.0,4,amine_primary,4(amine_primary),amine_primary,amine_primary(9.0~11.0)
NCCN,9.92,0:3,amine_primary:amine_primary,Ethylenediamine,[HL]/[L][H],0.1,25.0,0:3,amine_primary:amine_primary,0(amine_primary) > 3(amine_primary),amine_primary,amine_primary(9.0~11.0); amine_primary(9.0~11.0)
NCCN,9.61,0:3,amine_primary:amine_primary,Ethylenediamine,[HL]/[L][H],0.15,37.0,0:3,amine_primary:amine_primary,0(amine_primary) > 3(amine_primary),amine_primary,amine_primary(9.0~11.0); amine_primary(9.0~11.0)
NCCN,10.04,0:3,amine_primary:amine_primary,Ethylenediamine,[HL]/[L][H],0.5,25.0,0:3,amine_primary:amine_primary,0(amine_primary) > 3(amine_primary),amine_primary,amine_primary(9.0~11.0); amine_primary(9.0~11.0)
NCCN,10.2,0:3,amine_primary:amine_primary,Ethylenediamine,[HL]/[L][H],1.0,25.0,0:3,amine_primary:amine_primary,0(amine_primary) > 3(amine_primary),amine_primary,amine_primary(9.0~11.0); amine_primary(9.0~11.0)
NCCN,10.3,0:3,amine_primary:amine_primary,Ethylenediamine,[HL]/[L][H],2.0,25.0,0:3,amine_primary:amine_primary,0(amine_primary) > 3(amine_primary),amine_primary,amine_primary(9.0~11.0); amine_primary(9.0~11.0)
NCCN,10.53,0:3,amine_primary:amine_primary,Ethylenediamine,[HL]/[L][H],2.0,25.0,0:3,amine_primary:amine_primary,0(amine_primary) > 3(amine_primary),amine_primary,amine_primary(9.0~11.0); amine_primary(9.0~11.0)
NCCN,10.74,0:3,amine_primary:amine_primary,Ethylenediamine,[HL]/[L][H],3.0,25.0,0:3,amine_primary:amine_primary,0(amine_primary) > 3(amine_primary),amine_primary,amine_primary(9.0~11.0); amine_primary(9.0~11.0)
NCCN,10.8,0:3,amine_primary:amine_primary,Ethylenediamine,[HL]/[L][H],3.0,25.0,0:3,amine_primary:amine_primary,0(amine_primary) > 3(amine_primary),amine_primary,amine_primary(9.0~11.0); amine_primary(9.0~11.0)
NCCN,10.383,0:3,amine_primary:amine_primary,Ethylenediamine,[HL]/[L][H],0.0,10.0,0:3,amine_primary:amine_primary,0(amine_primary) > 3(amine_primary),amine_primary,amine_primary(9.0~11.0); amine_primary(9.0~11.0)
NCCN,9.928,0:3,amine_primary:amine_primary,Ethylenediamine,[HL]/[L][H],0.0,25.0,0:3,amine_primary:amine_primary,0(amine_primary) > 3(amine_primary),amine_primary,amine_primary(9.0~11.0); amine_primary(9.0~11.0)
NCCN,9.51,0:3,amine_primary:amine_primary,Ethylenediamine,[HL]/[L][H],0.0,40.0,0:3,amine_primary:amine_primary,0(amine_primary) > 3(amine_primary),amine_primary,amine_primary(9.0~11.0); amine_primary(9.0~11.0)
NCCN,7.11,0:3,amine_primary:amine_primary,Ethylenediamine,[H₂L]/[HL][H],0.1,25.0,0:3,amine_primary:amine_primary,0(amine_primary) > 3(amine_primary),amine_primary,amine_primary(9.0~11.0); amine_primary(9.0~11.0)
NCCN,6.83,0:3,amine_primary:amine_primary,Ethylenediamine,[H₂L]/[HL][H],0.15,37.0,0:3,amine_primary:amine_primary,0(amine_primary) > 3(amine_primary),amine_primary,amine_primary(9.0~11.0); amine_primary(9.0~11.0)
NCCN,7.31,0:3,amine_primary:amine_primary,Ethylenediamine,[H₂L]/[HL][H],0.5,25.0,0:3,amine_primary:amine_primary,0(amine_primary) > 3(amine_primary),amine_primary,amine_primary(9.0~11.0); amine_primary(9.0~11.0)
NCCN,7.47,0:3,amine_primary:amine_primary,Ethylenediamine,[H₂L]/[HL][H],1.0,25.0,0:3,amine_primary:amine_primary,0(amine_primary) > 3(amine_primary),amine_primary,amine_primary(9.0~11.0); amine_primary(9.0~11.0)
NCCN,7.69,0:3,amine_primary:amine_primary,Ethylenediamine,[H₂L]/[HL][H],2.0,25.0,0:3,amine_primary:amine_primary,0(amine_primary) > 3(amine_primary),amine_primary,amine_primary(9.0~11.0); amine_primary(9.0~11.0)
NCCN,7.93,0:3,amine_primary:amine_primary,Ethylenediamine,[H₂L]/[HL][H],3.0,25.0,0:3,amine_primary:amine_primary,0(amine_primary) > 3(amine_primary),amine_primary,amine_primary(9.0~11.0); amine_primary(9.0~11.0)
NCCN,8.21,0:3,amine_primary:amine_primary,Ethylenediamine,[H₂L]/[HL][H],4.0,25.0,0:3,amine_primary:amine_primary,0(amine_primary) > 3(amine_primary),amine_primary,amine_primary(9.0~11.0); amine_primary(9.0~11.0)
NCCN,7.266,0:3,amine_primary:amine_primary,Ethylenediamine,[H₂L]/[HL][H],0.0,10.0,0:3,amine_primary:amine_primary,0(amine_primary) > 3(amine_primary),amine_primary,amine_primary(9.0~11.0); amine_primary(9.0~11.0)
NCCN,6.848,0:3,amine_primary:amine_primary,Ethylenediamine,[H₂L]/[HL][H],0.0,25.0,0:3,amine_primary:amine_primary,0(amine_primary) > 3(amine_primary),amine_primary,amine_primary(9.0~11.0); amine_primary(9.0~11.0)
NCCN,6.463,0:3,amine_primary:amine_primary,Ethylenediamine,[H₂L]/[HL][H],0.0,40.0,0:3,amine_primary:amine_primary,0(amine_primary) > 3(amine_primary),amine_primary,amine_primary(9.0~11.0); amine_primary(9.0~11.0)