SMILES,pKa,Dissociable_Atoms,Functional_Group,Name,Dissociable_Atoms_Ordered,Functional_Group_Ordered,Dissociation_Order
ON=Cc1ccccc1O,8.85,0:7,hydroxyl_group:phenol,2-Hydroxybenzaldehyde oxime (Salicylaldoxime),7:0,phenol:hydroxyl_group,7(phenol) > 0(hydroxyl_group)
ON=Cc1ccccc1O,9.18,0:7,hydroxyl_group:phenol,2-Hydroxybenzaldehyde oxime (Salicylaldoxime),7:0,phenol:hydroxyl_group,7(phenol) > 0(hydroxyl_group)
ON=Cc1ccccc1O,1.37,0:7,hydroxyl_group:phenol,2-Hydroxybenzaldehyde oxime (Salicylaldoxime),7:0,phenol:hydroxyl_group,7(phenol) > 0(hydroxyl_group)
ON=Cc1cc(ccc1O)[S](O)(=O)=O,11.4,9:0,phenol:alcohol,2-Hydroxy-5-sulfobenzaldehyde oxime (5-Sulfosalicylaldoxime),9:0,phenol:alcohol,9(phenol) > 0(alcohol)
ON=Cc1cc(ccc1O)[S](O)(=O)=O,11.2,9:0,phenol:alcohol,2-Hydroxy-5-sulfobenzaldehyde oxime (5-Sulfosalicylaldoxime),9:0,phenol:alcohol,9(phenol) > 0(alcohol)
ON=Cc1cc(ccc1O)[S](O)(=O)=O,11.3,9:0,phenol:alcohol,2-Hydroxy-5-sulfobenzaldehyde oxime (5-Sulfosalicylaldoxime),9:0,phenol:alcohol,9(phenol) > 0(alcohol)
ON=Cc1cc(ccc1O)[S](O)(=O)=O,12.0,9:0,phenol:alcohol,2-Hydroxy-5-sulfobenzaldehyde oxime (5-Sulfosalicylaldoxime),9:0,phenol:alcohol,9(phenol) > 0(alcohol)
ON=Cc1cc(ccc1O)[S](O)(=O)=O,8.03,9:0,phenol:alcohol,2-Hydroxy-5-sulfobenzaldehyde oxime (5-Sulfosalicylaldoxime),9:0,phenol:alcohol,9(phenol) > 0(alcohol)
ON=Cc1cc(ccc1O)[S](O)(=O)=O,7.93,9:0,phenol:alcohol,2-Hydroxy-5-sulfobenzaldehyde oxime (5-Sulfosalicylaldoxime),9:0,phenol:alcohol,9(phenol) > 0(alcohol)
ON=Cc1cc(ccc1O)[S](O)(=O)=O,7.98,9:0,phenol:alcohol,2-Hydroxy-5-sulfobenzaldehyde oxime (5-Sulfosalicylaldoxime),9:0,phenol:alcohol,9(phenol) > 0(alcohol)
ON=Cc1cc(ccc1O)[S](O)(=O)=O,8.2,9:0,phenol:alcohol,2-Hydroxy-5-sulfobenzaldehyde oxime (5-Sulfosalicylaldoxime),9:0,phenol:alcohol,9(phenol) > 0(alcohol)
ON=Cc1cc(ccc1O)[S](O)(=O)=O,8.42,9:0,phenol:alcohol,2-Hydroxy-5-sulfobenzaldehyde oxime (5-Sulfosalicylaldoxime),9:0,phenol:alcohol,9(phenol) > 0(alcohol)
Oc1ccccc1O,13.3,7:0,phenol:phenol,"1,2-Dihydroxybenzene (Catechol)",7:0,phenol:phenol,7(phenol) > 0(phenol)
Oc1ccccc1O,13.1,7:0,phenol:phenol,"1,2-Dihydroxybenzene (Catechol)",7:0,phenol:phenol,7(phenol) > 0(phenol)
Oc1ccccc1O,9.26,7:0,phenol:phenol,"1,2-Dihydroxybenzene (Catechol)",7:0,phenol:phenol,7(phenol) > 0(phenol)
Oc1ccccc1O,9.22,7:0,phenol:phenol,"1,2-Dihydroxybenzene (Catechol)",7:0,phenol:phenol,7(phenol) > 0(phenol)
Oc1ccccc1O,9.27,7:0,phenol:phenol,"1,2-Dihydroxybenzene (Catechol)",7:0,phenol:phenol,7(phenol) > 0(phenol)
Oc1ccccc1O,9.46,7:0,phenol:phenol,"1,2-Dihydroxybenzene (Catechol)",7:0,phenol:phenol,7(phenol) > 0(phenol)
Oc1ccccc1O,9.45,7:0,phenol:phenol,"1,2-Dihydroxybenzene (Catechol)",7:0,phenol:phenol,7(phenol) > 0(phenol)
Oc1cccc(O)c1,11.06,0:6,phenol:phenol,"1,3-Dihydroxybenzene (Resorcinol)",0:6,phenol:phenol,0(phenol) > 6(phenol)
Oc1cccc(O)c1,11.0,0:6,phenol:phenol,"1,3-Dihydroxybenzene (Resorcinol)",0:6,phenol:phenol,0(phenol) > 6(phenol)
Oc1cccc(O)c1,9.3,0:6,phenol:phenol,"1,3-Dihydroxybenzene (Resorcinol)",0:6,phenol:phenol,0(phenol) > 6(phenol)
Oc1cccc(O)c1,9.28,0:6,phenol:phenol,"1,3-Dihydroxybenzene (Resorcinol)",0:6,phenol:phenol,0(phenol) > 6(phenol)
Oc1ccc(O)cc1,11.39,0:5,phenol:phenol,"1,4-Dihydroxybenzene (Hydroquinone)",0:5,phenol:phenol,0(phenol) > 5(phenol)
Oc1ccc(O)cc1,11.5,0:5,phenol:phenol,"1,4-Dihydroxybenzene (Hydroquinone)",0:5,phenol:phenol,0(phenol) > 5(phenol)
Oc1ccc(O)cc1,9.85,0:5,phenol:phenol,"1,4-Dihydroxybenzene (Hydroquinone)",0:5,phenol:phenol,0(phenol) > 5(phenol)
Oc1ccc(O)cc1,9.89,0:5,phenol:phenol,"1,4-Dihydroxybenzene (Hydroquinone)",0:5,phenol:phenol,0(phenol) > 5(phenol)
Cc1ccc(O)c(O)c1,13.8,5:7,phenol:phenol,"1,2-Dihydroxy-4-methylbenzene (4-Methylcatechol)",5:7,phenol:phenol,5(phenol) > 7(phenol)
Cc1ccc(O)c(O)c1,14.0,5:7,phenol:phenol,"1,2-Dihydroxy-4-methylbenzene (4-Methylcatechol)",5:7,phenol:phenol,5(phenol) > 7(phenol)
Cc1ccc(O)c(O)c1,9.4,5:7,phenol:phenol,"1,2-Dihydroxy-4-methylbenzene (4-Methylcatechol)",5:7,phenol:phenol,5(phenol) > 7(phenol)
Cc1ccc(O)c(O)c1,9.56,5:7,phenol:phenol,"1,2-Dihydroxy-4-methylbenzene (4-Methylcatechol)",5:7,phenol:phenol,5(phenol) > 7(phenol)
Cc1cc(O)ccc1O,11.62,8:4,phenol:phenol,"1,4-Dihydroxy-2-methylbenzene (Toluhydroquinone)",8:4,phenol:phenol,8(phenol) > 4(phenol)
Cc1cc(O)ccc1O,10.05,8:4,phenol:phenol,"1,4-Dihydroxy-2-methylbenzene (Toluhydroquinone)",8:4,phenol:phenol,8(phenol) > 4(phenol)
Cc1c(C)c(O)c(C)c(C)c1O,12.7,11:5,phenol:phenol,"1,4-Dihydroxytetramethylbenzene (Durohydroquinone)",11:5,phenol:phenol,11(phenol) > 5(phenol)
Cc1c(C)c(O)c(C)c(C)c1O,11.25,11:5,phenol:phenol,"1,4-Dihydroxytetramethylbenzene (Durohydroquinone)",11:5,phenol:phenol,11(phenol) > 5(phenol)
Oc1ccc(Br)cc1O,11.32,8:0,phenol:phenol,"4-Bromo-1,2-dihydroxybenzene (4-Bromocatechol)",8:0,phenol:phenol,8(phenol) > 0(phenol)
Oc1ccc(Br)cc1O,8.37,8:0,phenol:phenol,"4-Bromo-1,2-dihydroxybenzene (4-Bromocatechol)",8:0,phenol:phenol,8(phenol) > 0(phenol)
Oc1cccc(c1O)[N+]([O-])=O,11.6,7:0,phenol:phenol,"1,2-Dihydroxy-3-nitrobenzene (3-Nitrocatechol)",7:0,phenol:phenol,7(phenol) > 0(phenol)
Oc1cccc(c1O)[N+]([O-])=O,6.48,7:0,phenol:phenol,"1,2-Dihydroxy-3-nitrobenzene (3-Nitrocatechol)",7:0,phenol:phenol,7(phenol) > 0(phenol)
Oc1ccc(cc1O)[N+]([O-])=O,10.83,7:0,phenol:phenol,"1,2-Dihydroxy-4-nitrobenzene (4-Nitrocatechol)",7:0,phenol:phenol,7(phenol) > 0(phenol)
Oc1ccc(cc1O)[N+]([O-])=O,10.68,7:0,phenol:phenol,"1,2-Dihydroxy-4-nitrobenzene (4-Nitrocatechol)",7:0,phenol:phenol,7(phenol) > 0(phenol)
Oc1ccc(cc1O)[N+]([O-])=O,11.21,7:0,phenol:phenol,"1,2-Dihydroxy-4-nitrobenzene (4-Nitrocatechol)",7:0,phenol:phenol,7(phenol) > 0(phenol)
Oc1ccc(cc1O)[N+]([O-])=O,6.69,7:0,phenol:phenol,"1,2-Dihydroxy-4-nitrobenzene (4-Nitrocatechol)",7:0,phenol:phenol,7(phenol) > 0(phenol)
Oc1ccc(cc1O)[N+]([O-])=O,6.68,7:0,phenol:phenol,"1,2-Dihydroxy-4-nitrobenzene (4-Nitrocatechol)",7:0,phenol:phenol,7(phenol) > 0(phenol)
Oc1ccc(cc1O)[N+]([O-])=O,6.9,7:0,phenol:phenol,"1,2-Dihydroxy-4-nitrobenzene (4-Nitrocatechol)",7:0,phenol:phenol,7(phenol) > 0(phenol)
Oc1ccc(c(c1O)[N+]([O-])=O)[N+]([O-])=O,8.24,7:0,phenol:phenol,"1,2-Dihydroxy-3,4-dinitrobenzene (3,4-Dinitrocatechol)",7:0,phenol:phenol,7(phenol) > 0(phenol)
Oc1ccc(c(c1O)[N+]([O-])=O)[N+]([O-])=O,4.02,7:0,phenol:phenol,"1,2-Dihydroxy-3,4-dinitrobenzene (3,4-Dinitrocatechol)",7:0,phenol:phenol,7(phenol) > 0(phenol)
Oc1cc(cc(c1O)[N+]([O-])=O)[N+]([O-])=O,9.8,7:0,phenol:phenol,"1,2-Dihydroxy-3,5-Nitrobenzene (3,5-Dinitrocatechol)",7:0,phenol:phenol,7(phenol) > 0(phenol)
Oc1cc(cc(c1O)[N+]([O-])=O)[N+]([O-])=O,9.86,7:0,phenol:phenol,"1,2-Dihydroxy-3,5-Nitrobenzene (3,5-Dinitrocatechol)",7:0,phenol:phenol,7(phenol) > 0(phenol)
Oc1cc(cc(c1O)[N+]([O-])=O)[N+]([O-])=O,3.38,7:0,phenol:phenol,"1,2-Dihydroxy-3,5-Nitrobenzene (3,5-Dinitrocatechol)",7:0,phenol:phenol,7(phenol) > 0(phenol)
Oc1cc(cc(c1O)[N+]([O-])=O)[N+]([O-])=O,3.32,7:0,phenol:phenol,"1,2-Dihydroxy-3,5-Nitrobenzene (3,5-Dinitrocatechol)",7:0,phenol:phenol,7(phenol) > 0(phenol)
Oc1c(cc(c(O)c1[N+]([O-])=O)[N+]([O-])=O)[N+]([O-])=O,4.23,0:6,phenol:phenol,"1,3-Dihydroxy-2,4,6-trinitrobenzene (2,4,6-Trinitroresorcinol)",0:6,phenol:phenol,0(phenol) > 6(phenol)
Oc1c(cc(c(O)c1[N+]([O-])=O)[N+]([O-])=O)[N+]([O-])=O,0.1,0:6,phenol:phenol,"1,3-Dihydroxy-2,4,6-trinitrobenzene (2,4,6-Trinitroresorcinol)",0:6,phenol:phenol,0(phenol) > 6(phenol)
Oc1cccc(ON=O)c1,9.02,0:6,phenol:hydroxyl_group,"1,3-Dihydroxy-4-nitrosobenzene (Nitrosoresorcinol)",0:6,phenol:hydroxyl_group,0(phenol) > 6(hydroxyl_group)
Oc1cccc(ON=O)c1,8.84,0:6,phenol:hydroxyl_group,"1,3-Dihydroxy-4-nitrosobenzene (Nitrosoresorcinol)",0:6,phenol:hydroxyl_group,0(phenol) > 6(hydroxyl_group)
Oc1cccc(ON=O)c1,8.83,0:6,phenol:hydroxyl_group,"1,3-Dihydroxy-4-nitrosobenzene (Nitrosoresorcinol)",0:6,phenol:hydroxyl_group,0(phenol) > 6(hydroxyl_group)
Oc1cccc(ON=O)c1,9.44,0:6,phenol:hydroxyl_group,"1,3-Dihydroxy-4-nitrosobenzene (Nitrosoresorcinol)",0:6,phenol:hydroxyl_group,0(phenol) > 6(hydroxyl_group)
Oc1cccc(ON=O)c1,4.1,0:6,phenol:hydroxyl_group,"1,3-Dihydroxy-4-nitrosobenzene (Nitrosoresorcinol)",0:6,phenol:hydroxyl_group,0(phenol) > 6(hydroxyl_group)
Oc1cccc(ON=O)c1,4.07,0:6,phenol:hydroxyl_group,"1,3-Dihydroxy-4-nitrosobenzene (Nitrosoresorcinol)",0:6,phenol:hydroxyl_group,0(phenol) > 6(hydroxyl_group)
Oc1cccc(ON=O)c1,4.08,0:6,phenol:hydroxyl_group,"1,3-Dihydroxy-4-nitrosobenzene (Nitrosoresorcinol)",0:6,phenol:hydroxyl_group,0(phenol) > 6(hydroxyl_group)
Oc1cccc(ON=O)c1,4.31,0:6,phenol:hydroxyl_group,"1,3-Dihydroxy-4-nitrosobenzene (Nitrosoresorcinol)",0:6,phenol:hydroxyl_group,0(phenol) > 6(hydroxyl_group)
Oc1ccc(cc1O)[S](O)(=O)=O,12.8,7:0,phenol:phenol,"1,2-Dihydroxybenzene-4-sulfonic acid (4-Sulfocatechol)",7:0,phenol:phenol,7(phenol) > 0(phenol)
Oc1ccc(cc1O)[S](O)(=O)=O,12.16,7:0,phenol:phenol,"1,2-Dihydroxybenzene-4-sulfonic acid (4-Sulfocatechol)",7:0,phenol:phenol,7(phenol) > 0(phenol)
Oc1ccc(cc1O)[S](O)(=O)=O,8.5,7:0,phenol:phenol,"1,2-Dihydroxybenzene-4-sulfonic acid (4-Sulfocatechol)",7:0,phenol:phenol,7(phenol) > 0(phenol)
Oc1ccc(cc1O)[S](O)(=O)=O,8.26,7:0,phenol:phenol,"1,2-Dihydroxybenzene-4-sulfonic acid (4-Sulfocatechol)",7:0,phenol:phenol,7(phenol) > 0(phenol)
[Na+].[Na+].Oc1cc(cc(c1O)[S]([O-])(=O)=O)[S]([O-])(=O)=O,12.5,9:2,phenol:phenol,"1,2-Dihydroxybenzene-3,5-disulfonic acid (Tiron)",9:2,phenol:phenol,9(phenol) > 2(phenol)
[Na+].[Na+].Oc1cc(cc(c1O)[S]([O-])(=O)=O)[S]([O-])(=O)=O,11.8,9:2,phenol:phenol,"1,2-Dihydroxybenzene-3,5-disulfonic acid (Tiron)",9:2,phenol:phenol,9(phenol) > 2(phenol)
[Na+].[Na+].Oc1cc(cc(c1O)[S]([O-])(=O)=O)[S]([O-])(=O)=O,11.7,9:2,phenol:phenol,"1,2-Dihydroxybenzene-3,5-disulfonic acid (Tiron)",9:2,phenol:phenol,9(phenol) > 2(phenol)
[Na+].[Na+].Oc1cc(cc(c1O)[S]([O-])(=O)=O)[S]([O-])(=O)=O,11.6,9:2,phenol:phenol,"1,2-Dihydroxybenzene-3,5-disulfonic acid (Tiron)",9:2,phenol:phenol,9(phenol) > 2(phenol)
[Na+].[Na+].Oc1cc(cc(c1O)[S]([O-])(=O)=O)[S]([O-])(=O)=O,13.3,9:2,phenol:phenol,"1,2-Dihydroxybenzene-3,5-disulfonic acid (Tiron)",9:2,phenol:phenol,9(phenol) > 2(phenol)
[Na+].[Na+].Oc1cc(cc(c1O)[S]([O-])(=O)=O)[S]([O-])(=O)=O,7.62,9:2,phenol:phenol,"1,2-Dihydroxybenzene-3,5-disulfonic acid (Tiron)",9:2,phenol:phenol,9(phenol) > 2(phenol)
[Na+].[Na+].Oc1cc(cc(c1O)[S]([O-])(=O)=O)[S]([O-])(=O)=O,7.26,9:2,phenol:phenol,"1,2-Dihydroxybenzene-3,5-disulfonic acid (Tiron)",9:2,phenol:phenol,9(phenol) > 2(phenol)
[Na+].[Na+].Oc1cc(cc(c1O)[S]([O-])(=O)=O)[S]([O-])(=O)=O,7.15,9:2,phenol:phenol,"1,2-Dihydroxybenzene-3,5-disulfonic acid (Tiron)",9:2,phenol:phenol,9(phenol) > 2(phenol)
[Na+].[Na+].Oc1cc(cc(c1O)[S]([O-])(=O)=O)[S]([O-])(=O)=O,8.31,9:2,phenol:phenol,"1,2-Dihydroxybenzene-3,5-disulfonic acid (Tiron)",9:2,phenol:phenol,9(phenol) > 2(phenol)
COc1cccc(O)c1O,11.99,9:7,phenol:phenol,"1,2-Dihydroxy-3-methoxybenzene (Pyrogallol 1-methyl ether)",9:7,phenol:phenol,9(phenol) > 7(phenol)
COc1cccc(O)c1O,9.2,9:7,phenol:phenol,"1,2-Dihydroxy-3-methoxybenzene (Pyrogallol 1-methyl ether)",9:7,phenol:phenol,9(phenol) > 7(phenol)
Cc1cc(ccc1O)C2(O[S](=O)(=O)c3ccccc23)c4ccc(O)c(C)c4,7.95,7:23,phenol:phenol,"3,3'-Dimethyl-4'-hydroxyfuchson-2''-sulfonic acid (Cresol Red)",7:23,phenol:phenol,7(phenol) > 23(phenol)
Cc1cc(ccc1O)C2(O[S](=O)(=O)c3ccccc23)c4ccc(O)c(C)c4,1.0,7:23,phenol:phenol,"3,3'-Dimethyl-4'-hydroxyfuchson-2''-sulfonic acid (Cresol Red)",7:23,phenol:phenol,7(phenol) > 23(phenol)
OC1=C(O)C(=O)C1=O,3.1,3:0,phenol:phenol,Dihydroxycyclobutenedione (Squaric acid),3:0,phenol:phenol,3(phenol) > 0(phenol)
OC1=C(O)C(=O)C1=O,2.74,3:0,phenol:phenol,Dihydroxycyclobutenedione (Squaric acid),3:0,phenol:phenol,3(phenol) > 0(phenol)
OC1=C(O)C(=O)C1=O,2.8,3:0,phenol:phenol,Dihydroxycyclobutenedione (Squaric acid),3:0,phenol:phenol,3(phenol) > 0(phenol)
OC1=C(O)C(=O)C1=O,3.19,3:0,phenol:phenol,Dihydroxycyclobutenedione (Squaric acid),3:0,phenol:phenol,3(phenol) > 0(phenol)
OC1=C(O)C(=O)C1=O,3.48,3:0,phenol:phenol,Dihydroxycyclobutenedione (Squaric acid),3:0,phenol:phenol,3(phenol) > 0(phenol)
OC1=C(O)C(=O)C1=O,0.4,3:0,phenol:phenol,Dihydroxycyclobutenedione (Squaric acid),3:0,phenol:phenol,3(phenol) > 0(phenol)
OC1=C(O)C(=O)C1=O,1.0,3:0,phenol:phenol,Dihydroxycyclobutenedione (Squaric acid),3:0,phenol:phenol,3(phenol) > 0(phenol)
OC1=C(O)C(=O)C1=O,0.55,3:0,phenol:phenol,Dihydroxycyclobutenedione (Squaric acid),3:0,phenol:phenol,3(phenol) > 0(phenol)
OC1=C(O)C(=O)C(=O)C1=O,1.8,3:0,phenol:phenol,Dihydroxycyclopentenetrione (Croconic acid),3:0,phenol:phenol,3(phenol) > 0(phenol)
OC1=C(O)C(=O)C(=O)C1=O,1.51,3:0,phenol:phenol,Dihydroxycyclopentenetrione (Croconic acid),3:0,phenol:phenol,3(phenol) > 0(phenol)
OC1=C(O)C(=O)C(=O)C1=O,2.24,3:0,phenol:phenol,Dihydroxycyclopentenetrione (Croconic acid),3:0,phenol:phenol,3(phenol) > 0(phenol)
OC1=C(O)C(=O)C(=O)C1=O,0.6,3:0,phenol:phenol,Dihydroxycyclopentenetrione (Croconic acid),3:0,phenol:phenol,3(phenol) > 0(phenol)
OC1=C(O)C(=O)C(=O)C1=O,0.3,3:0,phenol:phenol,Dihydroxycyclopentenetrione (Croconic acid),3:0,phenol:phenol,3(phenol) > 0(phenol)
OC1=C(O)C(=O)C(=O)C1=O,0.8,3:0,phenol:phenol,Dihydroxycyclopentenetrione (Croconic acid),3:0,phenol:phenol,3(phenol) > 0(phenol)
OC1=C(O)C(=O)C(=O)C(=O)C1=O,3.58,3:0,phenol:phenol,"5,6-Dihydroxycyclohexene-1,2,3,4-tetrone (Rhodizonic acid)",3:0,phenol:phenol,3(phenol) > 0(phenol)
OC1=C(O)C(=O)C(=O)C(=O)C1=O,3.45,3:0,phenol:phenol,"5,6-Dihydroxycyclohexene-1,2,3,4-tetrone (Rhodizonic acid)",3:0,phenol:phenol,3(phenol) > 0(phenol)
OC1=CC=CC=CC1=O,6.7,0:8,phenol:carbonyl,"1-Hydroxycyclohepta-3,5,7-trien-2-one (Tropolone)",0:8,phenol:carbonyl,0(phenol) > 8(carbonyl)
OC1=CC=CC=CC1=O,6.65,0:8,phenol:carbonyl,"1-Hydroxycyclohepta-3,5,7-trien-2-one (Tropolone)",0:8,phenol:carbonyl,0(phenol) > 8(carbonyl)
OC1=CC=CC=CC1=O,6.78,0:8,phenol:carbonyl,"1-Hydroxycyclohepta-3,5,7-trien-2-one (Tropolone)",0:8,phenol:carbonyl,0(phenol) > 8(carbonyl)
OC1=CC=CC=CC1=O,6.42,0:8,phenol:carbonyl,"1-Hydroxycyclohepta-3,5,7-trien-2-one (Tropolone)",0:8,phenol:carbonyl,0(phenol) > 8(carbonyl)
OC1=CC=CC=CC1=O,6.89,0:8,phenol:carbonyl,"1-Hydroxycyclohepta-3,5,7-trien-2-one (Tropolone)",0:8,phenol:carbonyl,0(phenol) > 8(carbonyl)
OC1=CC=CC=CC1=O,0.5,0:8,phenol:carbonyl,"1-Hydroxycyclohepta-3,5,7-trien-2-one (Tropolone)",0:8,phenol:carbonyl,0(phenol) > 8(carbonyl)
OC1=CC=CC=CC1=O,0.3,0:8,phenol:carbonyl,"1-Hydroxycyclohepta-3,5,7-trien-2-one (Tropolone)",0:8,phenol:carbonyl,0(phenol) > 8(carbonyl)
OC1=CC=CC=CC1=O,0.0,0:8,phenol:carbonyl,"1-Hydroxycyclohepta-3,5,7-trien-2-one (Tropolone)",0:8,phenol:carbonyl,0(phenol) > 8(carbonyl)
CC(C)C1=CC(=O)C(=CC=C1)O,7.02,7:9,carbonyl:phenol,"1-Hydroxy-4-(1-methylethyl)cyclohepta-3,5,7-trien-2-one (beta-Isopropyltropolone)",9:7,phenol:carbonyl,9(phenol) > 7(carbonyl)
CC(C)C1=CC(=O)C(=CC=C1)O,6.72,7:9,carbonyl:phenol,"1-Hydroxy-4-(1-methylethyl)cyclohepta-3,5,7-trien-2-one (beta-Isopropyltropolone)",9:7,phenol:carbonyl,9(phenol) > 7(carbonyl)
CC(C)C1=CC(=O)C(=CC=C1)O,7.29,7:9,carbonyl:phenol,"1-Hydroxy-4-(1-methylethyl)cyclohepta-3,5,7-trien-2-one (beta-Isopropyltropolone)",9:7,phenol:carbonyl,9(phenol) > 7(carbonyl)
CC(C)C1=CC(=O)C(=CC=C1)O,1.7,7:9,carbonyl:phenol,"1-Hydroxy-4-(1-methylethyl)cyclohepta-3,5,7-trien-2-one (beta-Isopropyltropolone)",9:7,phenol:carbonyl,9(phenol) > 7(carbonyl)
OC(=O)C1=CC(=O)C(=CO1)O,7.46,10:0,phenol:carboxylic_acid,2-Carboxy-3-hydroxy-4-pyrone (Comenic acid),0:10,carboxylic_acid:phenol,0(carboxylic_acid) > 10(phenol)
OC(=O)C1=CC(=O)C(=CO1)O,7.31,10:0,phenol:carboxylic_acid,2-Carboxy-3-hydroxy-4-pyrone (Comenic acid),0:10,carboxylic_acid:phenol,0(carboxylic_acid) > 10(phenol)
OC(=O)C1=CC(=O)C(=CO1)O,7.32,10:0,phenol:carboxylic_acid,2-Carboxy-3-hydroxy-4-pyrone (Comenic acid),0:10,carboxylic_acid:phenol,0(carboxylic_acid) > 10(phenol)
OC(=O)C1=CC(=O)C(=CO1)O,7.8,10:0,phenol:carboxylic_acid,2-Carboxy-3-hydroxy-4-pyrone (Comenic acid),0:10,carboxylic_acid:phenol,0(carboxylic_acid) > 10(phenol)
OC(=O)C1=CC(=O)C(=CO1)O,1.4,10:0,phenol:carboxylic_acid,2-Carboxy-3-hydroxy-4-pyrone (Comenic acid),0:10,carboxylic_acid:phenol,0(carboxylic_acid) > 10(phenol)
OCC1=CC(=O)C(=C(CN2CCCCC2)O1)O,9.2,0:16,alcohol:phenol,3-Hydroxy-6-hydroxymethyl-2-(1-piperidinylmethyl)-4-pyrone,16:0,phenol:alcohol,16(phenol) > 0(alcohol)
OCC1=CC(=O)C(=C(CN2CCCCC2)O1)O,9.18,0:16,alcohol:phenol,3-Hydroxy-6-hydroxymethyl-2-(1-piperidinylmethyl)-4-pyrone,16:0,phenol:alcohol,16(phenol) > 0(alcohol)
OCC1=CC(=O)C(=C(CN2CCCCC2)O1)O,9.23,0:16,alcohol:phenol,3-Hydroxy-6-hydroxymethyl-2-(1-piperidinylmethyl)-4-pyrone,16:0,phenol:alcohol,16(phenol) > 0(alcohol)
OCC1=CC(=O)C(=C(CN2CCCCC2)O1)O,9.36,0:16,alcohol:phenol,3-Hydroxy-6-hydroxymethyl-2-(1-piperidinylmethyl)-4-pyrone,16:0,phenol:alcohol,16(phenol) > 0(alcohol)
OCC1=CC(=O)C(=C(CN2CCCCC2)O1)O,6.36,0:16,alcohol:phenol,3-Hydroxy-6-hydroxymethyl-2-(1-piperidinylmethyl)-4-pyrone,16:0,phenol:alcohol,16(phenol) > 0(alcohol)
OCC1=CC(=O)C(=C(CN2CCCCC2)O1)O,6.44,0:16,alcohol:phenol,3-Hydroxy-6-hydroxymethyl-2-(1-piperidinylmethyl)-4-pyrone,16:0,phenol:alcohol,16(phenol) > 0(alcohol)
OCC1=CC(=O)C(=C(CN2CCCCC2)O1)O,6.54,0:16,alcohol:phenol,3-Hydroxy-6-hydroxymethyl-2-(1-piperidinylmethyl)-4-pyrone,16:0,phenol:alcohol,16(phenol) > 0(alcohol)
OCC1=CC(=O)C(=C(CN2CCCCC2)O1)O,6.34,0:16,alcohol:phenol,3-Hydroxy-6-hydroxymethyl-2-(1-piperidinylmethyl)-4-pyrone,16:0,phenol:alcohol,16(phenol) > 0(alcohol)
OCC1=CC(=O)C(=C(CN2CCOCC2)O1)O,7.86,0:16,alcohol:phenol,3-Hydroxy-6-hydroxymethyl-2-(4-morpholinylmethyl)-4-pyrone,16:0,phenol:alcohol,16(phenol) > 0(alcohol)
OCC1=CC(=O)C(=C(CN2CCOCC2)O1)O,7.79,0:16,alcohol:phenol,3-Hydroxy-6-hydroxymethyl-2-(4-morpholinylmethyl)-4-pyrone,16:0,phenol:alcohol,16(phenol) > 0(alcohol)
OCC1=CC(=O)C(=C(CN2CCOCC2)O1)O,7.82,0:16,alcohol:phenol,3-Hydroxy-6-hydroxymethyl-2-(4-morpholinylmethyl)-4-pyrone,16:0,phenol:alcohol,16(phenol) > 0(alcohol)
OCC1=CC(=O)C(=C(CN2CCOCC2)O1)O,8.06,0:16,alcohol:phenol,3-Hydroxy-6-hydroxymethyl-2-(4-morpholinylmethyl)-4-pyrone,16:0,phenol:alcohol,16(phenol) > 0(alcohol)
OCC1=CC(=O)C(=C(CN2CCOCC2)O1)O,5.03,0:16,alcohol:phenol,3-Hydroxy-6-hydroxymethyl-2-(4-morpholinylmethyl)-4-pyrone,16:0,phenol:alcohol,16(phenol) > 0(alcohol)
OCC1=CC(=O)C(=C(CN2CCOCC2)O1)O,5.18,0:16,alcohol:phenol,3-Hydroxy-6-hydroxymethyl-2-(4-morpholinylmethyl)-4-pyrone,16:0,phenol:alcohol,16(phenol) > 0(alcohol)
OCC1=CC(=O)C(=C(CN2CCOCC2)O1)O,5.37,0:16,alcohol:phenol,3-Hydroxy-6-hydroxymethyl-2-(4-morpholinylmethyl)-4-pyrone,16:0,phenol:alcohol,16(phenol) > 0(alcohol)
OCC1=CC(=O)C(=C(CN2CCOCC2)O1)O,5.0,0:16,alcohol:phenol,3-Hydroxy-6-hydroxymethyl-2-(4-morpholinylmethyl)-4-pyrone,16:0,phenol:alcohol,16(phenol) > 0(alcohol)
OC1=CC(=O)C(=CC1=O)O,5.22,0:9,alcohol:alcohol,"2,5-Dihydroxy-1,4-benzoquinone",0:9,alcohol:alcohol,0(alcohol) > 9(alcohol)
OC1=CC(=O)C(=CC1=O)O,2.81,0:9,alcohol:alcohol,"2,5-Dihydroxy-1,4-benzoquinone",0:9,alcohol:alcohol,0(alcohol) > 9(alcohol)
OC1=C(C(=O)C(=C(C1=O)[S](O)(=O)=O)O)[S](O)(=O)=O,3.81,0:10,alcohol:alcohol,"2,5-Dihydroxy-1,4-benzoquinone-3,6-disulfonic acid",0:10,alcohol:alcohol,0(alcohol) > 10(alcohol)
OC1=C(C(=O)C(=C(C1=O)[S](O)(=O)=O)O)[S](O)(=O)=O,0.8,0:10,alcohol:alcohol,"2,5-Dihydroxy-1,4-benzoquinone-3,6-disulfonic acid",0:10,alcohol:alcohol,0(alcohol) > 10(alcohol)
OC1=C(Oc2ccccc2)C(=O)C(=C(Oc3ccccc3)C1=O)O,3.0,0:23,alcohol:alcohol,"3,6-Diphenoxy-2,5-dihydroxy-1,4-benzoquinone",0:23,alcohol:alcohol,0(alcohol) > 23(alcohol)
OC1=C(Oc2ccccc2)C(=O)C(=C(Oc3ccccc3)C1=O)O,2.0,0:23,alcohol:alcohol,"3,6-Diphenoxy-2,5-dihydroxy-1,4-benzoquinone",0:23,alcohol:alcohol,0(alcohol) > 23(alcohol)
OC1=C(O)C(=O)C(=C(O)C1=O)O,6.65,0:3,alcohol:alcohol,"Tetrahydroxy-1,4-benzoquinone (Tetrahydroxyquinone)",0:3,alcohol:alcohol,0(alcohol) > 3(alcohol)
OC1=C(O)C(=O)C(=C(O)C1=O)O,4.55,0:3,alcohol:alcohol,"Tetrahydroxy-1,4-benzoquinone (Tetrahydroxyquinone)",0:3,alcohol:alcohol,0(alcohol) > 3(alcohol)
SCCS,10.43,0:3,thiol:thiol,"Ethane-1,2-dithiol",0:3,thiol:thiol,0(thiol) > 3(thiol)
SCCS,8.85,0:3,thiol:thiol,"Ethane-1,2-dithiol",0:3,thiol:thiol,0(thiol) > 3(thiol)