SMILES,pKa,Dissociable_Atoms,Functional_Group,Name,Dissociable_Atoms_Ordered,Functional_Group_Ordered,Dissociation_Order
Sc1cccc2ccc(nc12)c3ccccc3,7.89,12,pyridine_nitrogen,8-Mercapto-2-phenylquinoline (環氮估計),12,pyridine_nitrogen,12(pyridine_nitrogen)
Sc1cccc2ccc(nc12)c3ccccc3,1.3,12,pyridine_nitrogen,8-Mercapto-2-phenylquinoline (環氮估計),12,pyridine_nitrogen,12(pyridine_nitrogen)
Sc1cccc2c(ccnc12)c3ccccc3,8.38,12,pyridine_nitrogen,8-Mercapto-4-phenylquinoline (環氮估計),12,pyridine_nitrogen,12(pyridine_nitrogen)
Sc1cccc2c(ccnc12)c3ccccc3,2.0,12,pyridine_nitrogen,8-Mercapto-4-phenylquinoline (環氮估計),12,pyridine_nitrogen,12(pyridine_nitrogen)
Sc1ccc(S)c2ncccc12,9.3,11,pyridine_nitrogen,"5,8-Dimercaptoquinoline (環氮估計)",11,pyridine_nitrogen,11(pyridine_nitrogen)
Sc1ccc(S)c2ncccc12,4.53,11,pyridine_nitrogen,"5,8-Dimercaptoquinoline (環氮估計)",11,pyridine_nitrogen,11(pyridine_nitrogen)
Sc1ccc(S)c2ncccc12,1.6,11,pyridine_nitrogen,"5,8-Dimercaptoquinoline (環氮估計)",11,pyridine_nitrogen,11(pyridine_nitrogen)