SMILES,pKa,Dissociable_Atoms,Functional_Group,Name,Equilibrium,Ionic,Temperature,Dissociable_Atoms_Ordered,Functional_Group_Ordered,Dissociation_Order,Dissociating_Group,Functional_Group_pKa_Ranges
OC(=O)CNc1cc(C(O)=O)c(cc1C(O)=O)N(CC(O)=O)CC(O)=O,2.67,0:9:15:20:24,carboxylic_acid:carboxylic_acid:carboxylic_acid:carboxylic_acid:carboxylic_acid,"N-[2,5-Dicarboxy-4-(carboxymethylamino)phenyl]iminodiacetic acid",[H₄L]/[H₃L][H],0.1,25.0,0:9:15:20:24,carboxylic_acid:carboxylic_acid:carboxylic_acid:carboxylic_acid:carboxylic_acid,0(carboxylic_acid) > 9(carboxylic_acid) > 15(carboxylic_acid) > 20(carboxylic_acid) > 24(carboxylic_acid),carboxylic_acid,carboxylic_acid(1.5~5.0); carboxylic_acid(1.5~5.0); carboxylic_acid(1.5~5.0); carboxylic_acid(1.5~5.0); carboxylic_acid(1.5~5.0)
OC(=O)CNc1cc(C(O)=O)c(cc1C(O)=O)N(CC(O)=O)CC(O)=O,1.8,0:9:15:20:24,carboxylic_acid:carboxylic_acid:carboxylic_acid:carboxylic_acid:carboxylic_acid,"N-[2,5-Dicarboxy-4-(carboxymethylamino)phenyl]iminodiacetic acid",[H₅L]/[H₄L][H],0.1,25.0,0:9:15:20:24,carboxylic_acid:carboxylic_acid:carboxylic_acid:carboxylic_acid:carboxylic_acid,0(carboxylic_acid) > 9(carboxylic_acid) > 15(carboxylic_acid) > 20(carboxylic_acid) > 24(carboxylic_acid),carboxylic_acid,carboxylic_acid(1.5~5.0); carboxylic_acid(1.5~5.0); carboxylic_acid(1.5~5.0); carboxylic_acid(1.5~5.0); carboxylic_acid(1.5~5.0)
OC(=O)CN(CC(O)=O)c1ccccc1N(CC(O)=O)CC(O)=O,6.67,7:25,tertiary_amine:tertiary_amine,"1,2-Phenylenedinitrilotetraacetic acid",[HL]/[L][H],0.1,25.0,7:25,tertiary_amine:tertiary_amine,7(tertiary_amine) > 25(tertiary_amine),Unknown,tertiary_amine(Unknown); tertiary_amine(Unknown)
OC(=O)CN(CC(O)=O)c1ccccc1N(CC(O)=O)CC(O)=O,6.81,7:25,tertiary_amine:tertiary_amine,"1,2-Phenylenedinitrilotetraacetic acid",[HL]/[L][H],0.1,25.0,7:25,tertiary_amine:tertiary_amine,7(tertiary_amine) > 25(tertiary_amine),Unknown,tertiary_amine(Unknown); tertiary_amine(Unknown)
OC(=O)CN(CC(O)=O)c1ccccc1N(CC(O)=O)CC(O)=O,6.42,7:25,tertiary_amine:tertiary_amine,"1,2-Phenylenedinitrilotetraacetic acid",[HL]/[L][H],0.5,25.0,7:25,tertiary_amine:tertiary_amine,7(tertiary_amine) > 25(tertiary_amine),Unknown,tertiary_amine(Unknown); tertiary_amine(Unknown)
OC(=O)CN(CC(O)=O)c1ccccc1N(CC(O)=O)CC(O)=O,6.41,7:25,tertiary_amine:tertiary_amine,"1,2-Phenylenedinitrilotetraacetic acid",[HL]/[L][H],1.0,25.0,7:25,tertiary_amine:tertiary_amine,7(tertiary_amine) > 25(tertiary_amine),Unknown,tertiary_amine(Unknown); tertiary_amine(Unknown)
OC(=O)CN(CC(O)=O)c1ccccc1N(CC(O)=O)CC(O)=O,4.81,7:25,tertiary_amine:tertiary_amine,"1,2-Phenylenedinitrilotetraacetic acid",[H₂L]/[HL][H],0.1,25.0,7:25,tertiary_amine:tertiary_amine,7(tertiary_amine) > 25(tertiary_amine),Unknown,tertiary_amine(Unknown); tertiary_amine(Unknown)
OC(=O)CN(CC(O)=O)c1ccccc1N(CC(O)=O)CC(O)=O,4.98,7:25,tertiary_amine:tertiary_amine,"1,2-Phenylenedinitrilotetraacetic acid",[H₂L]/[HL][H],0.1,25.0,7:25,tertiary_amine:tertiary_amine,7(tertiary_amine) > 25(tertiary_amine),Unknown,tertiary_amine(Unknown); tertiary_amine(Unknown)
OC(=O)CN(CC(O)=O)c1ccccc1N(CC(O)=O)CC(O)=O,4.58,7:25,tertiary_amine:tertiary_amine,"1,2-Phenylenedinitrilotetraacetic acid",[H₂L]/[HL][H],0.5,25.0,7:25,tertiary_amine:tertiary_amine,7(tertiary_amine) > 25(tertiary_amine),Unknown,tertiary_amine(Unknown); tertiary_amine(Unknown)
OC(=O)CN(CC(O)=O)c1ccccc1N(CC(O)=O)CC(O)=O,4.61,7:25,tertiary_amine:tertiary_amine,"1,2-Phenylenedinitrilotetraacetic acid",[H₂L]/[HL][H],1.0,25.0,7:25,tertiary_amine:tertiary_amine,7(tertiary_amine) > 25(tertiary_amine),Unknown,tertiary_amine(Unknown); tertiary_amine(Unknown)
OC(=O)CN(CC(O)=O)c1ccccc1N(CC(O)=O)CC(O)=O,3.66,7:25,tertiary_amine:tertiary_amine,"1,2-Phenylenedinitrilotetraacetic acid",[H₃L]/[H₂L][H],0.1,25.0,7:25,tertiary_amine:tertiary_amine,7(tertiary_amine) > 25(tertiary_amine),Unknown,tertiary_amine(Unknown); tertiary_amine(Unknown)
OC(=O)CN(CC(O)=O)c1ccccc1N(CC(O)=O)CC(O)=O,3.5,7:25,tertiary_amine:tertiary_amine,"1,2-Phenylenedinitrilotetraacetic acid",[H₃L]/[H₂L][H],0.5,25.0,7:25,tertiary_amine:tertiary_amine,7(tertiary_amine) > 25(tertiary_amine),Unknown,tertiary_amine(Unknown); tertiary_amine(Unknown)
OC(=O)CN(CC(O)=O)c1ccccc1N(CC(O)=O)CC(O)=O,3.53,7:25,tertiary_amine:tertiary_amine,"1,2-Phenylenedinitrilotetraacetic acid",[H₃L]/[H₂L][H],1.0,25.0,7:25,tertiary_amine:tertiary_amine,7(tertiary_amine) > 25(tertiary_amine),Unknown,tertiary_amine(Unknown); tertiary_amine(Unknown)
OC(=O)CN(CC(O)=O)c1ccccc1N(CC(O)=O)CC(O)=O,3.0,7:25,tertiary_amine:tertiary_amine,"1,2-Phenylenedinitrilotetraacetic acid",[H₄L]/[H₃L][H],0.1,25.0,7:25,tertiary_amine:tertiary_amine,7(tertiary_amine) > 25(tertiary_amine),Unknown,tertiary_amine(Unknown); tertiary_amine(Unknown)
OC(=O)CN(CC(O)=O)c1ccccc1N(CC(O)=O)CC(O)=O,2.92,7:25,tertiary_amine:tertiary_amine,"1,2-Phenylenedinitrilotetraacetic acid",[H₄L]/[H₃L][H],0.5,25.0,7:25,tertiary_amine:tertiary_amine,7(tertiary_amine) > 25(tertiary_amine),Unknown,tertiary_amine(Unknown); tertiary_amine(Unknown)
OC(=O)CN(CC(O)=O)c1ccccc1N(CC(O)=O)CC(O)=O,2.99,7:25,tertiary_amine:tertiary_amine,"1,2-Phenylenedinitrilotetraacetic acid",[H₄L]/[H₃L][H],1.0,25.0,7:25,tertiary_amine:tertiary_amine,7(tertiary_amine) > 25(tertiary_amine),Unknown,tertiary_amine(Unknown); tertiary_amine(Unknown)
OC(=O)CN(CC(O)=O)c1ccccc1N(CC(O)=O)CC(O)=O,0.6,7:25,tertiary_amine:tertiary_amine,"1,2-Phenylenedinitrilotetraacetic acid",[H₅L]/[H₄L][H],0.1,25.0,7:25,tertiary_amine:tertiary_amine,7(tertiary_amine) > 25(tertiary_amine),Unknown,tertiary_amine(Unknown); tertiary_amine(Unknown)
OC(=O)CN(CC(O)=O)c1ccccc1N(CC(O)=O)CC(O)=O,0.4,7:25,tertiary_amine:tertiary_amine,"1,2-Phenylenedinitrilotetraacetic acid",[H₅L]/[H₄L][H],1.0,25.0,7:25,tertiary_amine:tertiary_amine,7(tertiary_amine) > 25(tertiary_amine),Unknown,tertiary_amine(Unknown); tertiary_amine(Unknown)
OC(=O)CN(CC(O)=O)c1ccccc1N(CC(O)=O)CC(O)=O,0.3,7:25,tertiary_amine:tertiary_amine,"1,2-Phenylenedinitrilotetraacetic acid",[H₆L]/[H₅L][H],1.0,25.0,7:25,tertiary_amine:tertiary_amine,7(tertiary_amine) > 25(tertiary_amine),Unknown,tertiary_amine(Unknown); tertiary_amine(Unknown)
Cc1ccc(N(CC(O)=O)CC(O)=O)c(c1)N(CC(O)=O)CC(O)=O,7.02,8:12:19:23,carboxylic_acid:carboxylic_acid:carboxylic_acid:carboxylic_acid,"4-Methyl-1,2-phenylenedinitrilotetraacetic acid",[HL]/[L][H],0.1,25.0,8:12:19:23,carboxylic_acid:carboxylic_acid:carboxylic_acid:carboxylic_acid,8(carboxylic_acid) > 12(carboxylic_acid) > 19(carboxylic_acid) > 23(carboxylic_acid),carboxylic_acid,carboxylic_acid(1.5~5.0); carboxylic_acid(1.5~5.0); carboxylic_acid(1.5~5.0); carboxylic_acid(1.5~5.0)
Cc1ccc(N(CC(O)=O)CC(O)=O)c(c1)N(CC(O)=O)CC(O)=O,7.04,8:12:19:23,carboxylic_acid:carboxylic_acid:carboxylic_acid:carboxylic_acid,"4-Methyl-1,2-phenylenedinitrilotetraacetic acid",[HL]/[L][H],0.1,25.0,8:12:19:23,carboxylic_acid:carboxylic_acid:carboxylic_acid:carboxylic_acid,8(carboxylic_acid) > 12(carboxylic_acid) > 19(carboxylic_acid) > 23(carboxylic_acid),carboxylic_acid,carboxylic_acid(1.5~5.0); carboxylic_acid(1.5~5.0); carboxylic_acid(1.5~5.0); carboxylic_acid(1.5~5.0)
Cc1ccc(N(CC(O)=O)CC(O)=O)c(c1)N(CC(O)=O)CC(O)=O,6.78,8:12:19:23,carboxylic_acid:carboxylic_acid:carboxylic_acid:carboxylic_acid,"4-Methyl-1,2-phenylenedinitrilotetraacetic acid",[HL]/[L][H],0.5,25.0,8:12:19:23,carboxylic_acid:carboxylic_acid:carboxylic_acid:carboxylic_acid,8(carboxylic_acid) > 12(carboxylic_acid) > 19(carboxylic_acid) > 23(carboxylic_acid),carboxylic_acid,carboxylic_acid(1.5~5.0); carboxylic_acid(1.5~5.0); carboxylic_acid(1.5~5.0); carboxylic_acid(1.5~5.0)
Cc1ccc(N(CC(O)=O)CC(O)=O)c(c1)N(CC(O)=O)CC(O)=O,4.75,8:12:19:23,carboxylic_acid:carboxylic_acid:carboxylic_acid:carboxylic_acid,"4-Methyl-1,2-phenylenedinitrilotetraacetic acid",[H₂L]/[HL][H],0.1,25.0,8:12:19:23,carboxylic_acid:carboxylic_acid:carboxylic_acid:carboxylic_acid,8(carboxylic_acid) > 12(carboxylic_acid) > 19(carboxylic_acid) > 23(carboxylic_acid),carboxylic_acid,carboxylic_acid(1.5~5.0); carboxylic_acid(1.5~5.0); carboxylic_acid(1.5~5.0); carboxylic_acid(1.5~5.0)
Cc1ccc(N(CC(O)=O)CC(O)=O)c(c1)N(CC(O)=O)CC(O)=O,4.91,8:12:19:23,carboxylic_acid:carboxylic_acid:carboxylic_acid:carboxylic_acid,"4-Methyl-1,2-phenylenedinitrilotetraacetic acid",[H₂L]/[HL][H],0.1,25.0,8:12:19:23,carboxylic_acid:carboxylic_acid:carboxylic_acid:carboxylic_acid,8(carboxylic_acid) > 12(carboxylic_acid) > 19(carboxylic_acid) > 23(carboxylic_acid),carboxylic_acid,carboxylic_acid(1.5~5.0); carboxylic_acid(1.5~5.0); carboxylic_acid(1.5~5.0); carboxylic_acid(1.5~5.0)
Cc1ccc(N(CC(O)=O)CC(O)=O)c(c1)N(CC(O)=O)CC(O)=O,4.62,8:12:19:23,carboxylic_acid:carboxylic_acid:carboxylic_acid:carboxylic_acid,"4-Methyl-1,2-phenylenedinitrilotetraacetic acid",[H₂L]/[HL][H],0.5,25.0,8:12:19:23,carboxylic_acid:carboxylic_acid:carboxylic_acid:carboxylic_acid,8(carboxylic_acid) > 12(carboxylic_acid) > 19(carboxylic_acid) > 23(carboxylic_acid),carboxylic_acid,carboxylic_acid(1.5~5.0); carboxylic_acid(1.5~5.0); carboxylic_acid(1.5~5.0); carboxylic_acid(1.5~5.0)
Cc1ccc(N(CC(O)=O)CC(O)=O)c(c1)N(CC(O)=O)CC(O)=O,3.55,8:12:19:23,carboxylic_acid:carboxylic_acid:carboxylic_acid:carboxylic_acid,"4-Methyl-1,2-phenylenedinitrilotetraacetic acid",[H₃L]/[H₂L][H],0.1,25.0,8:12:19:23,carboxylic_acid:carboxylic_acid:carboxylic_acid:carboxylic_acid,8(carboxylic_acid) > 12(carboxylic_acid) > 19(carboxylic_acid) > 23(carboxylic_acid),carboxylic_acid,carboxylic_acid(1.5~5.0); carboxylic_acid(1.5~5.0); carboxylic_acid(1.5~5.0); carboxylic_acid(1.5~5.0)
Cc1ccc(N(CC(O)=O)CC(O)=O)c(c1)N(CC(O)=O)CC(O)=O,3.51,8:12:19:23,carboxylic_acid:carboxylic_acid:carboxylic_acid:carboxylic_acid,"4-Methyl-1,2-phenylenedinitrilotetraacetic acid",[H₃L]/[H₂L][H],0.5,25.0,8:12:19:23,carboxylic_acid:carboxylic_acid:carboxylic_acid:carboxylic_acid,8(carboxylic_acid) > 12(carboxylic_acid) > 19(carboxylic_acid) > 23(carboxylic_acid),carboxylic_acid,carboxylic_acid(1.5~5.0); carboxylic_acid(1.5~5.0); carboxylic_acid(1.5~5.0); carboxylic_acid(1.5~5.0)
Cc1ccc(N(CC(O)=O)CC(O)=O)c(c1)N(CC(O)=O)CC(O)=O,2.85,8:12:19:23,carboxylic_acid:carboxylic_acid:carboxylic_acid:carboxylic_acid,"4-Methyl-1,2-phenylenedinitrilotetraacetic acid",[H₄L]/[H₃L][H],0.1,25.0,8:12:19:23,carboxylic_acid:carboxylic_acid:carboxylic_acid:carboxylic_acid,8(carboxylic_acid) > 12(carboxylic_acid) > 19(carboxylic_acid) > 23(carboxylic_acid),carboxylic_acid,carboxylic_acid(1.5~5.0); carboxylic_acid(1.5~5.0); carboxylic_acid(1.5~5.0); carboxylic_acid(1.5~5.0)
Cc1ccc(N(CC(O)=O)CC(O)=O)c(c1)N(CC(O)=O)CC(O)=O,2.92,8:12:19:23,carboxylic_acid:carboxylic_acid:carboxylic_acid:carboxylic_acid,"4-Methyl-1,2-phenylenedinitrilotetraacetic acid",[H₄L]/[H₃L][H],0.5,25.0,8:12:19:23,carboxylic_acid:carboxylic_acid:carboxylic_acid:carboxylic_acid,8(carboxylic_acid) > 12(carboxylic_acid) > 19(carboxylic_acid) > 23(carboxylic_acid),carboxylic_acid,carboxylic_acid(1.5~5.0); carboxylic_acid(1.5~5.0); carboxylic_acid(1.5~5.0); carboxylic_acid(1.5~5.0)
OC(=O)CN(CC(O)=O)c1cccc(c1)N(CC(O)=O)CC(O)=O,5.8,0:7:18:22,carboxylic_acid:carboxylic_acid:carboxylic_acid:carboxylic_acid,"1,3-Phenylenedinitrilotetraacetic acid",[HL]/[L][H],0.1,25.0,0:7:18:22,carboxylic_acid:carboxylic_acid:carboxylic_acid:carboxylic_acid,0(carboxylic_acid) > 7(carboxylic_acid) > 18(carboxylic_acid) > 22(carboxylic_acid),carboxylic_acid,carboxylic_acid(1.5~5.0); carboxylic_acid(1.5~5.0); carboxylic_acid(1.5~5.0); carboxylic_acid(1.5~5.0)
OC(=O)CN(CC(O)=O)c1cccc(c1)N(CC(O)=O)CC(O)=O,5.51,0:7:18:22,carboxylic_acid:carboxylic_acid:carboxylic_acid:carboxylic_acid,"1,3-Phenylenedinitrilotetraacetic acid",[HL]/[L][H],0.5,25.0,0:7:18:22,carboxylic_acid:carboxylic_acid:carboxylic_acid:carboxylic_acid,0(carboxylic_acid) > 7(carboxylic_acid) > 18(carboxylic_acid) > 22(carboxylic_acid),carboxylic_acid,carboxylic_acid(1.5~5.0); carboxylic_acid(1.5~5.0); carboxylic_acid(1.5~5.0); carboxylic_acid(1.5~5.0)
OC(=O)CN(CC(O)=O)c1cccc(c1)N(CC(O)=O)CC(O)=O,5.07,0:7:18:22,carboxylic_acid:carboxylic_acid:carboxylic_acid:carboxylic_acid,"1,3-Phenylenedinitrilotetraacetic acid",[H₂L]/[HL][H],0.1,25.0,0:7:18:22,carboxylic_acid:carboxylic_acid:carboxylic_acid:carboxylic_acid,0(carboxylic_acid) > 7(carboxylic_acid) > 18(carboxylic_acid) > 22(carboxylic_acid),carboxylic_acid,carboxylic_acid(1.5~5.0); carboxylic_acid(1.5~5.0); carboxylic_acid(1.5~5.0); carboxylic_acid(1.5~5.0)
OC(=O)CN(CC(O)=O)c1cccc(c1)N(CC(O)=O)CC(O)=O,4.85,0:7:18:22,carboxylic_acid:carboxylic_acid:carboxylic_acid:carboxylic_acid,"1,3-Phenylenedinitrilotetraacetic acid",[H₂L]/[HL][H],0.5,25.0,0:7:18:22,carboxylic_acid:carboxylic_acid:carboxylic_acid:carboxylic_acid,0(carboxylic_acid) > 7(carboxylic_acid) > 18(carboxylic_acid) > 22(carboxylic_acid),carboxylic_acid,carboxylic_acid(1.5~5.0); carboxylic_acid(1.5~5.0); carboxylic_acid(1.5~5.0); carboxylic_acid(1.5~5.0)
OC(=O)CN(CC(O)=O)c1cccc(c1)N(CC(O)=O)CC(O)=O,2.86,0:7:18:22,carboxylic_acid:carboxylic_acid:carboxylic_acid:carboxylic_acid,"1,3-Phenylenedinitrilotetraacetic acid",[H₃L]/[H₂L][H],0.1,25.0,0:7:18:22,carboxylic_acid:carboxylic_acid:carboxylic_acid:carboxylic_acid,0(carboxylic_acid) > 7(carboxylic_acid) > 18(carboxylic_acid) > 22(carboxylic_acid),carboxylic_acid,carboxylic_acid(1.5~5.0); carboxylic_acid(1.5~5.0); carboxylic_acid(1.5~5.0); carboxylic_acid(1.5~5.0)
OC(=O)CN(CC(O)=O)c1cccc(c1)N(CC(O)=O)CC(O)=O,2.82,0:7:18:22,carboxylic_acid:carboxylic_acid:carboxylic_acid:carboxylic_acid,"1,3-Phenylenedinitrilotetraacetic acid",[H₃L]/[H₂L][H],0.5,25.0,0:7:18:22,carboxylic_acid:carboxylic_acid:carboxylic_acid:carboxylic_acid,0(carboxylic_acid) > 7(carboxylic_acid) > 18(carboxylic_acid) > 22(carboxylic_acid),carboxylic_acid,carboxylic_acid(1.5~5.0); carboxylic_acid(1.5~5.0); carboxylic_acid(1.5~5.0); carboxylic_acid(1.5~5.0)
OC(=O)CN(CC(O)=O)c1cccc(c1)N(CC(O)=O)CC(O)=O,2.0,0:7:18:22,carboxylic_acid:carboxylic_acid:carboxylic_acid:carboxylic_acid,"1,3-Phenylenedinitrilotetraacetic acid",[H₄L]/[H₃L][H],0.1,25.0,0:7:18:22,carboxylic_acid:carboxylic_acid:carboxylic_acid:carboxylic_acid,0(carboxylic_acid) > 7(carboxylic_acid) > 18(carboxylic_acid) > 22(carboxylic_acid),carboxylic_acid,carboxylic_acid(1.5~5.0); carboxylic_acid(1.5~5.0); carboxylic_acid(1.5~5.0); carboxylic_acid(1.5~5.0)
OC(=O)CN(CC(O)=O)c1cccc(c1)N(CC(O)=O)CC(O)=O,2.0,0:7:18:22,carboxylic_acid:carboxylic_acid:carboxylic_acid:carboxylic_acid,"1,3-Phenylenedinitrilotetraacetic acid",[H₄L]/[H₃L][H],0.5,25.0,0:7:18:22,carboxylic_acid:carboxylic_acid:carboxylic_acid:carboxylic_acid,0(carboxylic_acid) > 7(carboxylic_acid) > 18(carboxylic_acid) > 22(carboxylic_acid),carboxylic_acid,carboxylic_acid(1.5~5.0); carboxylic_acid(1.5~5.0); carboxylic_acid(1.5~5.0); carboxylic_acid(1.5~5.0)
Cc1c(cccc1N(CC(O)=O)CC(O)=O)N(CC(O)=O)CC(O)=O,6.14,10:28,tertiary_amine:tertiary_amine,"2-Methyl-1,3-phenylenedinitrilotetraacetic acid",[HL]/[L][H],0.1,25.0,10:28,tertiary_amine:tertiary_amine,10(tertiary_amine) > 28(tertiary_amine),Unknown,tertiary_amine(Unknown); tertiary_amine(Unknown)
Cc1c(cccc1N(CC(O)=O)CC(O)=O)N(CC(O)=O)CC(O)=O,4.53,10:28,tertiary_amine:tertiary_amine,"2-Methyl-1,3-phenylenedinitrilotetraacetic acid",[H₂L]/[HL][H],0.1,25.0,10:28,tertiary_amine:tertiary_amine,10(tertiary_amine) > 28(tertiary_amine),Unknown,tertiary_amine(Unknown); tertiary_amine(Unknown)
Cc1c(cccc1N(CC(O)=O)CC(O)=O)N(CC(O)=O)CC(O)=O,3.44,10:28,tertiary_amine:tertiary_amine,"2-Methyl-1,3-phenylenedinitrilotetraacetic acid",[H₃L]/[H₂L][H],0.1,25.0,10:28,tertiary_amine:tertiary_amine,10(tertiary_amine) > 28(tertiary_amine),Unknown,tertiary_amine(Unknown); tertiary_amine(Unknown)
Cc1c(cccc1N(CC(O)=O)CC(O)=O)N(CC(O)=O)CC(O)=O,2.28,10:28,tertiary_amine:tertiary_amine,"2-Methyl-1,3-phenylenedinitrilotetraacetic acid",[H₄L]/[H₃L][H],0.1,25.0,10:28,tertiary_amine:tertiary_amine,10(tertiary_amine) > 28(tertiary_amine),Unknown,tertiary_amine(Unknown); tertiary_amine(Unknown)
Cc1c(cccc1N(CC(O)=O)CC(O)=O)N(CC(O)=O)CC(O)=O,1.9,10:28,tertiary_amine:tertiary_amine,"2-Methyl-1,3-phenylenedinitrilotetraacetic acid",[H₅L]/[H₄L][H],0.1,25.0,10:28,tertiary_amine:tertiary_amine,10(tertiary_amine) > 28(tertiary_amine),Unknown,tertiary_amine(Unknown); tertiary_amine(Unknown)
Cc1ccc(cc1N(CC(O)=O)CC(O)=O)N(CC(O)=O)CC(O)=O,6.58,10:14:19:23,carboxylic_acid:carboxylic_acid:carboxylic_acid:carboxylic_acid,"4-Methyl-1,3-phenylenedinitrilotetraacetic acid",[HL]/[L][H],0.1,25.0,10:14:19:23,carboxylic_acid:carboxylic_acid:carboxylic_acid:carboxylic_acid,10(carboxylic_acid) > 14(carboxylic_acid) > 19(carboxylic_acid) > 23(carboxylic_acid),carboxylic_acid,carboxylic_acid(1.5~5.0); carboxylic_acid(1.5~5.0); carboxylic_acid(1.5~5.0); carboxylic_acid(1.5~5.0)
Cc1ccc(cc1N(CC(O)=O)CC(O)=O)N(CC(O)=O)CC(O)=O,4.82,10:14:19:23,carboxylic_acid:carboxylic_acid:carboxylic_acid:carboxylic_acid,"4-Methyl-1,3-phenylenedinitrilotetraacetic acid",[H₂L]/[HL][H],0.1,25.0,10:14:19:23,carboxylic_acid:carboxylic_acid:carboxylic_acid:carboxylic_acid,10(carboxylic_acid) > 14(carboxylic_acid) > 19(carboxylic_acid) > 23(carboxylic_acid),carboxylic_acid,carboxylic_acid(1.5~5.0); carboxylic_acid(1.5~5.0); carboxylic_acid(1.5~5.0); carboxylic_acid(1.5~5.0)
Cc1ccc(cc1N(CC(O)=O)CC(O)=O)N(CC(O)=O)CC(O)=O,3.0,10:14:19:23,carboxylic_acid:carboxylic_acid:carboxylic_acid:carboxylic_acid,"4-Methyl-1,3-phenylenedinitrilotetraacetic acid",[H₃L]/[H₂L][H],0.1,25.0,10:14:19:23,carboxylic_acid:carboxylic_acid:carboxylic_acid:carboxylic_acid,10(carboxylic_acid) > 14(carboxylic_acid) > 19(carboxylic_acid) > 23(carboxylic_acid),carboxylic_acid,carboxylic_acid(1.5~5.0); carboxylic_acid(1.5~5.0); carboxylic_acid(1.5~5.0); carboxylic_acid(1.5~5.0)
Cc1ccc(cc1N(CC(O)=O)CC(O)=O)N(CC(O)=O)CC(O)=O,2.16,10:14:19:23,carboxylic_acid:carboxylic_acid:carboxylic_acid:carboxylic_acid,"4-Methyl-1,3-phenylenedinitrilotetraacetic acid",[H₄L]/[H₃L][H],0.1,25.0,10:14:19:23,carboxylic_acid:carboxylic_acid:carboxylic_acid:carboxylic_acid,10(carboxylic_acid) > 14(carboxylic_acid) > 19(carboxylic_acid) > 23(carboxylic_acid),carboxylic_acid,carboxylic_acid(1.5~5.0); carboxylic_acid(1.5~5.0); carboxylic_acid(1.5~5.0); carboxylic_acid(1.5~5.0)
OC(=O)CN(CC(O)=O)c1ccc(cc1)N(CC(O)=O)CC(O)=O,6.06,0:7:18:22,carboxylic_acid:carboxylic_acid:carboxylic_acid:carboxylic_acid,"1,4-Phenylenedinitrilotetraacetic acid",[HL]/[L][H],0.1,25.0,0:7:18:22,carboxylic_acid:carboxylic_acid:carboxylic_acid:carboxylic_acid,0(carboxylic_acid) > 7(carboxylic_acid) > 18(carboxylic_acid) > 22(carboxylic_acid),carboxylic_acid,carboxylic_acid(1.5~5.0); carboxylic_acid(1.5~5.0); carboxylic_acid(1.5~5.0); carboxylic_acid(1.5~5.0)
OC(=O)CN(CC(O)=O)c1ccc(cc1)N(CC(O)=O)CC(O)=O,5.65,0:7:18:22,carboxylic_acid:carboxylic_acid:carboxylic_acid:carboxylic_acid,"1,4-Phenylenedinitrilotetraacetic acid",[HL]/[L][H],0.5,25.0,0:7:18:22,carboxylic_acid:carboxylic_acid:carboxylic_acid:carboxylic_acid,0(carboxylic_acid) > 7(carboxylic_acid) > 18(carboxylic_acid) > 22(carboxylic_acid),carboxylic_acid,carboxylic_acid(1.5~5.0); carboxylic_acid(1.5~5.0); carboxylic_acid(1.5~5.0); carboxylic_acid(1.5~5.0)
OC(=O)CN(CC(O)=O)c1ccc(cc1)N(CC(O)=O)CC(O)=O,4.92,0:7:18:22,carboxylic_acid:carboxylic_acid:carboxylic_acid:carboxylic_acid,"1,4-Phenylenedinitrilotetraacetic acid",[H₂L]/[HL][H],0.1,25.0,0:7:18:22,carboxylic_acid:carboxylic_acid:carboxylic_acid:carboxylic_acid,0(carboxylic_acid) > 7(carboxylic_acid) > 18(carboxylic_acid) > 22(carboxylic_acid),carboxylic_acid,carboxylic_acid(1.5~5.0); carboxylic_acid(1.5~5.0); carboxylic_acid(1.5~5.0); carboxylic_acid(1.5~5.0)
OC(=O)CN(CC(O)=O)c1ccc(cc1)N(CC(O)=O)CC(O)=O,4.61,0:7:18:22,carboxylic_acid:carboxylic_acid:carboxylic_acid:carboxylic_acid,"1,4-Phenylenedinitrilotetraacetic acid",[H₂L]/[HL][H],0.5,25.0,0:7:18:22,carboxylic_acid:carboxylic_acid:carboxylic_acid:carboxylic_acid,0(carboxylic_acid) > 7(carboxylic_acid) > 18(carboxylic_acid) > 22(carboxylic_acid),carboxylic_acid,carboxylic_acid(1.5~5.0); carboxylic_acid(1.5~5.0); carboxylic_acid(1.5~5.0); carboxylic_acid(1.5~5.0)