SMILES,pKa,Dissociable_Atoms,Functional_Group,Name,Equilibrium,Ionic,Temperature,Dissociable_Atoms_Ordered,Functional_Group_Ordered,Dissociation_Order,Dissociating_Group,Functional_Group_pKa_Ranges
NCC(=O)N[C@@H](CO)C(O)=O,2.97,9:0,carboxylic_acid:amine_primary,Glycyl-L-serine,[H₂L]/[HL][H],0.1,25.0,9:0,carboxylic_acid:amine_primary,9(carboxylic_acid) > 0(amine_primary),carboxylic_acid,carboxylic_acid(1.5~5.0); amine_primary(9.0~11.0)
NCC(=O)N[C@@H](CO)C(O)=O,2.997,9:0,carboxylic_acid:amine_primary,Glycyl-L-serine,[H₂L]/[HL][H],0.0,10.0,9:0,carboxylic_acid:amine_primary,9(carboxylic_acid) > 0(amine_primary),carboxylic_acid,carboxylic_acid(1.5~5.0); amine_primary(9.0~11.0)
NCC(=O)N[C@@H](CO)C(O)=O,2.981,9:0,carboxylic_acid:amine_primary,Glycyl-L-serine,[H₂L]/[HL][H],0.0,25.0,9:0,carboxylic_acid:amine_primary,9(carboxylic_acid) > 0(amine_primary),carboxylic_acid,carboxylic_acid(1.5~5.0); amine_primary(9.0~11.0)
NCC(=O)N[C@@H](CO)C(O)=O,2.98,9:0,carboxylic_acid:amine_primary,Glycyl-L-serine,[H₂L]/[HL][H],0.0,40.0,9:0,carboxylic_acid:amine_primary,9(carboxylic_acid) > 0(amine_primary),carboxylic_acid,carboxylic_acid(1.5~5.0); amine_primary(9.0~11.0)
NCC(=O)N1C[C@H](O)C[C@H]1C(O)=O,8.37,11:0,carboxylic_acid:amine_primary,Glycyl-L-hydroxyproline,[HL]/[L][H],0.5,25.0,11:0,carboxylic_acid:amine_primary,11(carboxylic_acid) > 0(amine_primary),amine_primary,carboxylic_acid(1.5~5.0); amine_primary(9.0~11.0)
NCC(=O)N1C[C@H](O)C[C@H]1C(O)=O,2.8,11:0,carboxylic_acid:amine_primary,Glycyl-L-hydroxyproline,[H₂L]/[HL][H],0.7,25.0,11:0,carboxylic_acid:amine_primary,11(carboxylic_acid) > 0(amine_primary),carboxylic_acid,carboxylic_acid(1.5~5.0); amine_primary(9.0~11.0)
NCC(=O)N[C@@H](CC(N)=O)C(O)=O,8.12,11:0,carboxylic_acid:amine_primary,Glycyl-L-asparagine,[HL]/[L][H],0.1,25.0,11:0,carboxylic_acid:amine_primary,11(carboxylic_acid) > 0(amine_primary),amine_primary,carboxylic_acid(1.5~5.0); amine_primary(9.0~11.0)
NCC(=O)N[C@@H](CC(N)=O)C(O)=O,8.685,11:0,carboxylic_acid:amine_primary,Glycyl-L-asparagine,[HL]/[L][H],0.0,10.0,11:0,carboxylic_acid:amine_primary,11(carboxylic_acid) > 0(amine_primary),amine_primary,carboxylic_acid(1.5~5.0); amine_primary(9.0~11.0)
NCC(=O)N[C@@H](CC(N)=O)C(O)=O,8.268,11:0,carboxylic_acid:amine_primary,Glycyl-L-asparagine,[HL]/[L][H],0.0,25.0,11:0,carboxylic_acid:amine_primary,11(carboxylic_acid) > 0(amine_primary),amine_primary,carboxylic_acid(1.5~5.0); amine_primary(9.0~11.0)
NCC(=O)N[C@@H](CC(N)=O)C(O)=O,7.894,11:0,carboxylic_acid:amine_primary,Glycyl-L-asparagine,[HL]/[L][H],0.0,40.0,11:0,carboxylic_acid:amine_primary,11(carboxylic_acid) > 0(amine_primary),amine_primary,carboxylic_acid(1.5~5.0); amine_primary(9.0~11.0)
NCC(=O)N[C@@H](CC(N)=O)C(O)=O,3.12,11:0,carboxylic_acid:amine_primary,Glycyl-L-asparagine,[H₂L]/[HL][H],0.1,25.0,11:0,carboxylic_acid:amine_primary,11(carboxylic_acid) > 0(amine_primary),carboxylic_acid,carboxylic_acid(1.5~5.0); amine_primary(9.0~11.0)
NCC(=O)N[C@@H](CC(N)=O)C(O)=O,2.958,11:0,carboxylic_acid:amine_primary,Glycyl-L-asparagine,[H₂L]/[HL][H],0.0,10.0,11:0,carboxylic_acid:amine_primary,11(carboxylic_acid) > 0(amine_primary),carboxylic_acid,carboxylic_acid(1.5~5.0); amine_primary(9.0~11.0)
NCC(=O)N[C@@H](CC(N)=O)C(O)=O,2.942,11:0,carboxylic_acid:amine_primary,Glycyl-L-asparagine,[H₂L]/[HL][H],0.0,25.0,11:0,carboxylic_acid:amine_primary,11(carboxylic_acid) > 0(amine_primary),carboxylic_acid,carboxylic_acid(1.5~5.0); amine_primary(9.0~11.0)
NCC(=O)N[C@@H](CC(N)=O)C(O)=O,2.947,11:0,carboxylic_acid:amine_primary,Glycyl-L-asparagine,[H₂L]/[HL][H],0.0,40.0,11:0,carboxylic_acid:amine_primary,11(carboxylic_acid) > 0(amine_primary),carboxylic_acid,carboxylic_acid(1.5~5.0); amine_primary(9.0~11.0)
NCC(=O)N[C@@H](CS)C(O)=O,9.48,9:0:4,carboxylic_acid:amine_primary:amine_secondary,Glycyl-L-cysteine,[HL]/[L][H],0.1,25.0,9:0:4,carboxylic_acid:amine_primary:amine_secondary,9(carboxylic_acid) > 0(amine_primary) > 4(amine_secondary),amine_primary,carboxylic_acid(1.5~5.0); amine_primary(9.0~11.0); amine_secondary(9.5~11.5)
NCC(=O)N[C@@H](CS)C(O)=O,8.04,9:0:4,carboxylic_acid:amine_primary:amine_secondary,Glycyl-L-cysteine,[H₂L]/[HL][H],0.1,25.0,9:0:4,carboxylic_acid:amine_primary:amine_secondary,9(carboxylic_acid) > 0(amine_primary) > 4(amine_secondary),amine_primary,carboxylic_acid(1.5~5.0); amine_primary(9.0~11.0); amine_secondary(9.5~11.5)
NCC(=O)N[C@@H](CS)C(O)=O,2.73,9:0:4,carboxylic_acid:amine_primary:amine_secondary,Glycyl-L-cysteine,[H₃L]/[H₂L][H],0.1,25.0,9:0:4,carboxylic_acid:amine_primary:amine_secondary,9(carboxylic_acid) > 0(amine_primary) > 4(amine_secondary),carboxylic_acid,carboxylic_acid(1.5~5.0); amine_primary(9.0~11.0); amine_secondary(9.5~11.5)
CSCC[C@H](NC(=O)CN)C(O)=O,8.12,11:9,carboxylic_acid:amine_primary,Glycyl-L-methionine,[HL]/[L][H],0.1,25.0,11:9,carboxylic_acid:amine_primary,11(carboxylic_acid) > 9(amine_primary),amine_primary,carboxylic_acid(1.5~5.0); amine_primary(9.0~11.0)
CSCC[C@H](NC(=O)CN)C(O)=O,8.825,11:9,carboxylic_acid:amine_primary,Glycyl-L-methionine,[HL]/[L][H],0.0,10.0,11:9,carboxylic_acid:amine_primary,11(carboxylic_acid) > 9(amine_primary),amine_primary,carboxylic_acid(1.5~5.0); amine_primary(9.0~11.0)
CSCC[C@H](NC(=O)CN)C(O)=O,8.408,11:9,carboxylic_acid:amine_primary,Glycyl-L-methionine,[HL]/[L][H],0.0,25.0,11:9,carboxylic_acid:amine_primary,11(carboxylic_acid) > 9(amine_primary),amine_primary,carboxylic_acid(1.5~5.0); amine_primary(9.0~11.0)
CSCC[C@H](NC(=O)CN)C(O)=O,8.037,11:9,carboxylic_acid:amine_primary,Glycyl-L-methionine,[HL]/[L][H],0.0,40.0,11:9,carboxylic_acid:amine_primary,11(carboxylic_acid) > 9(amine_primary),amine_primary,carboxylic_acid(1.5~5.0); amine_primary(9.0~11.0)
CSCC[C@H](NC(=O)CN)C(O)=O,3.02,11:9,carboxylic_acid:amine_primary,Glycyl-L-methionine,[H₂L]/[HL][H],0.1,25.0,11:9,carboxylic_acid:amine_primary,11(carboxylic_acid) > 9(amine_primary),carboxylic_acid,carboxylic_acid(1.5~5.0); amine_primary(9.0~11.0)
NCCCC[C@H](NC(=O)CN)C(O)=O,10.46,12:0:10,carboxylic_acid:amine_primary:amine_primary,Glycyl-L-lysine,[HL]/[L][H],0.1,25.0,12:0:10,carboxylic_acid:amine_primary:amine_primary,12(carboxylic_acid) > 0(amine_primary) > 10(amine_primary),amine_primary,carboxylic_acid(1.5~5.0); amine_primary(9.0~11.0); amine_primary(9.0~11.0)
NCCCC[C@H](NC(=O)CN)C(O)=O,10.0,12:0:10,carboxylic_acid:amine_primary:amine_primary,Glycyl-L-lysine,[HL]/[L][H],0.1,37.0,12:0:10,carboxylic_acid:amine_primary:amine_primary,12(carboxylic_acid) > 0(amine_primary) > 10(amine_primary),amine_primary,carboxylic_acid(1.5~5.0); amine_primary(9.0~11.0); amine_primary(9.0~11.0)
NCCCC[C@H](NC(=O)CN)C(O)=O,8.02,12:0:10,carboxylic_acid:amine_primary:amine_primary,Glycyl-L-lysine,[H₂L]/[HL][H],0.1,25.0,12:0:10,carboxylic_acid:amine_primary:amine_primary,12(carboxylic_acid) > 0(amine_primary) > 10(amine_primary),amine_primary,carboxylic_acid(1.5~5.0); amine_primary(9.0~11.0); amine_primary(9.0~11.0)
NCCCC[C@H](NC(=O)CN)C(O)=O,7.8,12:0:10,carboxylic_acid:amine_primary:amine_primary,Glycyl-L-lysine,[H₂L]/[HL][H],0.1,37.0,12:0:10,carboxylic_acid:amine_primary:amine_primary,12(carboxylic_acid) > 0(amine_primary) > 10(amine_primary),amine_primary,carboxylic_acid(1.5~5.0); amine_primary(9.0~11.0); amine_primary(9.0~11.0)
NCCCC[C@H](NC(=O)CN)C(O)=O,2.8,12:0:10,carboxylic_acid:amine_primary:amine_primary,Glycyl-L-lysine,[H₃L]/[H₂L][H],0.1,37.0,12:0:10,carboxylic_acid:amine_primary:amine_primary,12(carboxylic_acid) > 0(amine_primary) > 10(amine_primary),carboxylic_acid,carboxylic_acid(1.5~5.0); amine_primary(9.0~11.0); amine_primary(9.0~11.0)
NCC(=O)N[C@@H](Cc1c[nH]cn1)C(O)=O,8.14,13:0:4,carboxylic_acid:amine_primary:amine_secondary,Glycyl-L-histidine,[HL]/[L][H],0.1,25.0,13:0:4,carboxylic_acid:amine_primary:amine_secondary,13(carboxylic_acid) > 0(amine_primary) > 4(amine_secondary),amine_primary,carboxylic_acid(1.5~5.0); amine_primary(9.0~11.0); amine_secondary(9.5~11.5)
NCC(=O)N[C@@H](Cc1c[nH]cn1)C(O)=O,7.85,13:0:4,carboxylic_acid:amine_primary:amine_secondary,Glycyl-L-histidine,[HL]/[L][H],0.15,37.0,13:0:4,carboxylic_acid:amine_primary:amine_secondary,13(carboxylic_acid) > 0(amine_primary) > 4(amine_secondary),amine_primary,carboxylic_acid(1.5~5.0); amine_primary(9.0~11.0); amine_secondary(9.5~11.5)
NCC(=O)N[C@@H](Cc1c[nH]cn1)C(O)=O,6.7,13:0:4,carboxylic_acid:amine_primary:amine_secondary,Glycyl-L-histidine,[H₂L]/[HL][H],0.1,25.0,13:0:4,carboxylic_acid:amine_primary:amine_secondary,13(carboxylic_acid) > 0(amine_primary) > 4(amine_secondary),amine_primary,carboxylic_acid(1.5~5.0); amine_primary(9.0~11.0); amine_secondary(9.5~11.5)
NCC(=O)N[C@@H](Cc1c[nH]cn1)C(O)=O,6.49,13:0:4,carboxylic_acid:amine_primary:amine_secondary,Glycyl-L-histidine,[H₂L]/[HL][H],0.15,37.0,13:0:4,carboxylic_acid:amine_primary:amine_secondary,13(carboxylic_acid) > 0(amine_primary) > 4(amine_secondary),carboxylic_acid,carboxylic_acid(1.5~5.0); amine_primary(9.0~11.0); amine_secondary(9.5~11.5)
NCC(=O)N[C@@H](Cc1c[nH]cn1)C(O)=O,2.52,13:0:4,carboxylic_acid:amine_primary:amine_secondary,Glycyl-L-histidine,[H₃L]/[H₂L][H],0.1,25.0,13:0:4,carboxylic_acid:amine_primary:amine_secondary,13(carboxylic_acid) > 0(amine_primary) > 4(amine_secondary),carboxylic_acid,carboxylic_acid(1.5~5.0); amine_primary(9.0~11.0); amine_secondary(9.5~11.5)
NCC(=O)N[C@@H](Cc1c[nH]cn1)C(O)=O,2.54,13:0:4,carboxylic_acid:amine_primary:amine_secondary,Glycyl-L-histidine,[H₃L]/[H₂L][H],0.15,37.0,13:0:4,carboxylic_acid:amine_primary:amine_secondary,13(carboxylic_acid) > 0(amine_primary) > 4(amine_secondary),carboxylic_acid,carboxylic_acid(1.5~5.0); amine_primary(9.0~11.0); amine_secondary(9.5~11.5)
NCCC(=O)NCC(O)=O,9.4,8:0,carboxylic_acid:amine_primary,beta-Alanylglycine,[HL]/[L][H],0.1,25.0,8:0,carboxylic_acid:amine_primary,8(carboxylic_acid) > 0(amine_primary),amine_primary,carboxylic_acid(1.5~5.0); amine_primary(9.0~11.0)
NCCC(=O)NCC(O)=O,3.2,8:0,carboxylic_acid:amine_primary,beta-Alanylglycine,[H₂L]/[HL][H],0.1,25.0,8:0,carboxylic_acid:amine_primary,8(carboxylic_acid) > 0(amine_primary),carboxylic_acid,carboxylic_acid(1.5~5.0); amine_primary(9.0~11.0)
C[C@H](N)C(=O)NCC(O)=O,8.11,8:2,carboxylic_acid:amine_primary,L-Alanylglycine,[HL]/[L][H],0.1,25.0,8:2,carboxylic_acid:amine_primary,8(carboxylic_acid) > 2(amine_primary),amine_primary,carboxylic_acid(1.5~5.0); amine_primary(9.0~11.0)
C[C@H](N)C(=O)NCC(O)=O,3.13,8:2,carboxylic_acid:amine_primary,L-Alanylglycine,[H₂L]/[HL][H],0.1,25.0,8:2,carboxylic_acid:amine_primary,8(carboxylic_acid) > 2(amine_primary),carboxylic_acid,carboxylic_acid(1.5~5.0); amine_primary(9.0~11.0)
CC(C)[C@H](N)C(=O)NCC(O)=O,7.95,10:4,carboxylic_acid:amine_primary,L-Valylglycine,[HL]/[L][H],0.1,25.0,10:4,carboxylic_acid:amine_primary,10(carboxylic_acid) > 4(amine_primary),amine_primary,carboxylic_acid(1.5~5.0); amine_primary(9.0~11.0)
CC(C)[C@H](N)C(=O)NCC(O)=O,3.1,10:4,carboxylic_acid:amine_primary,L-Valylglycine,[H₂L]/[HL][H],0.1,25.0,10:4,carboxylic_acid:amine_primary,10(carboxylic_acid) > 4(amine_primary),carboxylic_acid,carboxylic_acid(1.5~5.0); amine_primary(9.0~11.0)
CC(C)C[C@H](N)C(=O)NCC(O)=O,8.0,11:5,carboxylic_acid:amine_primary,L-Leucylglycine,[HL]/[L][H],0.1,25.0,11:5,carboxylic_acid:amine_primary,11(carboxylic_acid) > 5(amine_primary),amine_primary,carboxylic_acid(1.5~5.0); amine_primary(9.0~11.0)
CC(C)C[C@H](N)C(=O)NCC(O)=O,8.12,11:5,carboxylic_acid:amine_primary,L-Leucylglycine,[HL]/[L][H],0.1,20.0,11:5,carboxylic_acid:amine_primary,11(carboxylic_acid) > 5(amine_primary),amine_primary,carboxylic_acid(1.5~5.0); amine_primary(9.0~11.0)
CC(C)C[C@H](N)C(=O)NCC(O)=O,3.11,11:5,carboxylic_acid:amine_primary,L-Leucylglycine,[H₂L]/[HL][H],0.1,25.0,11:5,carboxylic_acid:amine_primary,11(carboxylic_acid) > 5(amine_primary),carboxylic_acid,carboxylic_acid(1.5~5.0); amine_primary(9.0~11.0)
CC(C)C[C@H](N)C(=O)NCC(O)=O,3.08,11:5,carboxylic_acid:amine_primary,L-Leucylglycine,[H₂L]/[HL][H],0.1,20.0,11:5,carboxylic_acid:amine_primary,11(carboxylic_acid) > 5(amine_primary),carboxylic_acid,carboxylic_acid(1.5~5.0); amine_primary(9.0~11.0)
CC[C@H](C)[C@H](N)C(=O)NCC(O)=O,7.96,11:5,carboxylic_acid:amine_primary,L-Isoleucylglycine,[HL]/[L][H],0.1,25.0,11:5,carboxylic_acid:amine_primary,11(carboxylic_acid) > 5(amine_primary),amine_primary,carboxylic_acid(1.5~5.0); amine_primary(9.0~11.0)
CC[C@H](C)[C@H](N)C(=O)NCC(O)=O,3.04,11:5,carboxylic_acid:amine_primary,L-Isoleucylglycine,[H₂L]/[HL][H],0.1,25.0,11:5,carboxylic_acid:amine_primary,11(carboxylic_acid) > 5(amine_primary),carboxylic_acid,carboxylic_acid(1.5~5.0); amine_primary(9.0~11.0)
N[C@@H](Cc1ccccc1)C(=O)NCC(O)=O,7.48,14:0,carboxylic_acid:amine_primary,L-Phenylalanylglycine,[HL]/[L][H],0.1,25.0,14:0,carboxylic_acid:amine_primary,14(carboxylic_acid) > 0(amine_primary),amine_primary,carboxylic_acid(1.5~5.0); amine_primary(9.0~11.0)
N[C@@H](Cc1ccccc1)C(=O)NCC(O)=O,3.07,14:0,carboxylic_acid:amine_primary,L-Phenylalanylglycine,[H₂L]/[HL][H],0.1,25.0,14:0,carboxylic_acid:amine_primary,14(carboxylic_acid) > 0(amine_primary),carboxylic_acid,carboxylic_acid(1.5~5.0); amine_primary(9.0~11.0)
CNCC(=O)NCC(O)=O,8.44,8:1,carboxylic_acid:amine_secondary,Sarcosylglycine,[HL]/[L][H],0.1,25.0,8:1,carboxylic_acid:amine_secondary,8(carboxylic_acid) > 1(amine_secondary),amine_secondary,carboxylic_acid(1.5~5.0); amine_secondary(9.5~11.5)
CNCC(=O)NCC(O)=O,3.0,8:1,carboxylic_acid:amine_secondary,Sarcosylglycine,[H₂L]/[HL][H],0.1,25.0,8:1,carboxylic_acid:amine_secondary,8(carboxylic_acid) > 1(amine_secondary),carboxylic_acid,carboxylic_acid(1.5~5.0); amine_secondary(9.5~11.5)
OC(=O)CNC(=O)[C@@H]1CCCN1,8.91,0:4,carboxylic_acid:amine_secondary,L-Prolylglycine,[HL]/[L][H],0.1,25.0,0:4,carboxylic_acid:amine_secondary,0(carboxylic_acid) > 4(amine_secondary),amine_secondary,carboxylic_acid(1.5~5.0); amine_secondary(9.5~11.5)
OC(=O)CNC(=O)[C@@H]1CCCN1,9.03,0:4,carboxylic_acid:amine_secondary,L-Prolylglycine,[HL]/[L][H],0.1,20.0,0:4,carboxylic_acid:amine_secondary,0(carboxylic_acid) > 4(amine_secondary),amine_secondary,carboxylic_acid(1.5~5.0); amine_secondary(9.5~11.5)
OC(=O)CNC(=O)[C@@H]1CCCN1,3.1,0:4,carboxylic_acid:amine_secondary,L-Prolylglycine,[H₂L]/[HL][H],0.1,25.0,0:4,carboxylic_acid:amine_secondary,0(carboxylic_acid) > 4(amine_secondary),carboxylic_acid,carboxylic_acid(1.5~5.0); amine_secondary(9.5~11.5)
OC(=O)CNC(=O)[C@@H]1CCCN1,2.93,0:4,carboxylic_acid:amine_secondary,L-Prolylglycine,[H₂L]/[HL][H],0.1,20.0,0:4,carboxylic_acid:amine_secondary,0(carboxylic_acid) > 4(amine_secondary),carboxylic_acid,carboxylic_acid(1.5~5.0); amine_secondary(9.5~11.5)
N[C@@H](CC(O)=O)C(=O)NCC(O)=O,8.03,4:11:0,carboxylic_acid:carboxylic_acid:amine_primary,L-Aspartylglycine,[HL]/[L][H],0.1,25.0,4:11:0,carboxylic_acid:carboxylic_acid:amine_primary,4(carboxylic_acid) > 11(carboxylic_acid) > 0(amine_primary),amine_primary,carboxylic_acid(1.5~5.0); carboxylic_acid(1.5~5.0); amine_primary(9.0~11.0)
N[C@@H](CC(O)=O)C(=O)NCC(O)=O,3.67,4:11:0,carboxylic_acid:carboxylic_acid:amine_primary,L-Aspartylglycine,[H₂L]/[HL][H],0.1,25.0,4:11:0,carboxylic_acid:carboxylic_acid:amine_primary,4(carboxylic_acid) > 11(carboxylic_acid) > 0(amine_primary),carboxylic_acid,carboxylic_acid(1.5~5.0); carboxylic_acid(1.5~5.0); amine_primary(9.0~11.0)
N[C@@H](CC(O)=O)C(=O)NCC(O)=O,2.82,4:11:0,carboxylic_acid:carboxylic_acid:amine_primary,L-Aspartylglycine,[H₃L]/[H₂L][H],0.1,25.0,4:11:0,carboxylic_acid:carboxylic_acid:amine_primary,4(carboxylic_acid) > 11(carboxylic_acid) > 0(amine_primary),carboxylic_acid,carboxylic_acid(1.5~5.0); carboxylic_acid(1.5~5.0); amine_primary(9.0~11.0)
N[C@@H](CCC(O)=O)C(=O)NCC(O)=O,8.04,5:12:0,carboxylic_acid:carboxylic_acid:amine_primary,L-Glutamylglycine,[HL]/[L][H],0.1,25.0,5:12:0,carboxylic_acid:carboxylic_acid:amine_primary,5(carboxylic_acid) > 12(carboxylic_acid) > 0(amine_primary),amine_primary,carboxylic_acid(1.5~5.0); carboxylic_acid(1.5~5.0); amine_primary(9.0~11.0)
N[C@@H](CCC(O)=O)C(=O)NCC(O)=O,7.87,5:12:0,carboxylic_acid:carboxylic_acid:amine_primary,L-Glutamylglycine,[HL]/[L][H],0.5,25.0,5:12:0,carboxylic_acid:carboxylic_acid:amine_primary,5(carboxylic_acid) > 12(carboxylic_acid) > 0(amine_primary),amine_primary,carboxylic_acid(1.5~5.0); carboxylic_acid(1.5~5.0); amine_primary(9.0~11.0)
N[C@@H](CCC(O)=O)C(=O)NCC(O)=O,4.11,5:12:0,carboxylic_acid:carboxylic_acid:amine_primary,L-Glutamylglycine,[H₂L]/[HL][H],0.1,25.0,5:12:0,carboxylic_acid:carboxylic_acid:amine_primary,5(carboxylic_acid) > 12(carboxylic_acid) > 0(amine_primary),carboxylic_acid,carboxylic_acid(1.5~5.0); carboxylic_acid(1.5~5.0); amine_primary(9.0~11.0)
N[C@@H](CCC(O)=O)C(=O)NCC(O)=O,4.14,5:12:0,carboxylic_acid:carboxylic_acid:amine_primary,L-Glutamylglycine,[H₂L]/[HL][H],0.5,25.0,5:12:0,carboxylic_acid:carboxylic_acid:amine_primary,5(carboxylic_acid) > 12(carboxylic_acid) > 0(amine_primary),carboxylic_acid,carboxylic_acid(1.5~5.0); carboxylic_acid(1.5~5.0); amine_primary(9.0~11.0)
N[C@@H](CCC(O)=O)C(=O)NCC(O)=O,2.91,5:12:0,carboxylic_acid:carboxylic_acid:amine_primary,L-Glutamylglycine,[H₃L]/[H₂L][H],0.1,25.0,5:12:0,carboxylic_acid:carboxylic_acid:amine_primary,5(carboxylic_acid) > 12(carboxylic_acid) > 0(amine_primary),carboxylic_acid,carboxylic_acid(1.5~5.0); carboxylic_acid(1.5~5.0); amine_primary(9.0~11.0)
N[C@@H](CCC(O)=O)C(=O)NCC(O)=O,3.15,5:12:0,carboxylic_acid:carboxylic_acid:amine_primary,L-Glutamylglycine,[H₃L]/[H₂L][H],0.5,25.0,5:12:0,carboxylic_acid:carboxylic_acid:amine_primary,5(carboxylic_acid) > 12(carboxylic_acid) > 0(amine_primary),carboxylic_acid,carboxylic_acid(1.5~5.0); carboxylic_acid(1.5~5.0); amine_primary(9.0~11.0)
N[C@@H](Cc1ccc(O)cc1)C(=O)NCC(O)=O,9.92,15:0:12,carboxylic_acid:amine_primary:amine_secondary,L-Tyrosylglycine,[HL]/[L][H],0.1,25.0,15:0:12,carboxylic_acid:amine_primary:amine_secondary,15(carboxylic_acid) > 0(amine_primary) > 12(amine_secondary),amine_primary,carboxylic_acid(1.5~5.0); amine_primary(9.0~11.0); amine_secondary(9.5~11.5)
N[C@@H](Cc1ccc(O)cc1)C(=O)NCC(O)=O,7.62,15:0:12,carboxylic_acid:amine_primary:amine_secondary,L-Tyrosylglycine,[H₂L]/[HL][H],0.1,25.0,15:0:12,carboxylic_acid:amine_primary:amine_secondary,15(carboxylic_acid) > 0(amine_primary) > 12(amine_secondary),amine_primary,carboxylic_acid(1.5~5.0); amine_primary(9.0~11.0); amine_secondary(9.5~11.5)
N[C@@H](Cc1ccc(O)cc1)C(=O)NCC(O)=O,3.14,15:0:12,carboxylic_acid:amine_primary:amine_secondary,L-Tyrosylglycine,[H₃L]/[H₂L][H],0.1,25.0,15:0:12,carboxylic_acid:amine_primary:amine_secondary,15(carboxylic_acid) > 0(amine_primary) > 12(amine_secondary),carboxylic_acid,carboxylic_acid(1.5~5.0); amine_primary(9.0~11.0); amine_secondary(9.5~11.5)
N[C@@H](CO)C(=O)NCC(O)=O,7.34,9:0,carboxylic_acid:amine_primary,L-Serylglycine,[HL]/[L][H],0.1,25.0,9:0,carboxylic_acid:amine_primary,9(carboxylic_acid) > 0(amine_primary),amine_primary,carboxylic_acid(1.5~5.0); amine_primary(9.0~11.0)
N[C@@H](CO)C(=O)NCC(O)=O,3.15,9:0,carboxylic_acid:amine_primary,L-Serylglycine,[H₂L]/[HL][H],0.1,25.0,9:0,carboxylic_acid:amine_primary,9(carboxylic_acid) > 0(amine_primary),carboxylic_acid,carboxylic_acid(1.5~5.0); amine_primary(9.0~11.0)
N[C@@H](CS)C(=O)NCC(O)=O,9.3,9:0:6,carboxylic_acid:amine_primary:amine_secondary,L-Cysteinylglycine,[HL]/[L][H],0.1,25.0,9:0:6,carboxylic_acid:amine_primary:amine_secondary,9(carboxylic_acid) > 0(amine_primary) > 6(amine_secondary),amine_primary,carboxylic_acid(1.5~5.0); amine_primary(9.0~11.0); amine_secondary(9.5~11.5)
N[C@@H](CS)C(=O)NCC(O)=O,6.91,9:0:6,carboxylic_acid:amine_primary:amine_secondary,L-Cysteinylglycine,[H₂L]/[HL][H],0.1,25.0,9:0:6,carboxylic_acid:amine_primary:amine_secondary,9(carboxylic_acid) > 0(amine_primary) > 6(amine_secondary),amine_primary,carboxylic_acid(1.5~5.0); amine_primary(9.0~11.0); amine_secondary(9.5~11.5)
N[C@@H](CS)C(=O)NCC(O)=O,3.15,9:0:6,carboxylic_acid:amine_primary:amine_secondary,L-Cysteinylglycine,[H₃L]/[H₂L][H],0.1,25.0,9:0:6,carboxylic_acid:amine_primary:amine_secondary,9(carboxylic_acid) > 0(amine_primary) > 6(amine_secondary),carboxylic_acid,carboxylic_acid(1.5~5.0); amine_primary(9.0~11.0); amine_secondary(9.5~11.5)