SMILES,pKa,Dissociable_Atoms,Functional_Group,Name,Equilibrium,Ionic,Temperature,Dissociable_Atoms_Ordered,Functional_Group_Ordered,Dissociation_Order,Dissociating_Group,Functional_Group_pKa_Ranges
Nc1ccc(cc1)C(O)=O,4.87,0:8,aniline:carboxylic_acid,4-Aminobenzoic acid,[HL]/[L][H],0.0,25.0,8:0,carboxylic_acid:aniline,8(carboxylic_acid) > 0(aniline),carboxylic_acid,aniline(Unknown); carboxylic_acid(1.5~5.0)
Nc1ccc(cc1)C(O)=O,2.5,0:8,aniline:carboxylic_acid,4-Aminobenzoic acid,[H₂L]/[HL][H],0.1,25.0,8:0,carboxylic_acid:aniline,8(carboxylic_acid) > 0(aniline),carboxylic_acid,aniline(Unknown); carboxylic_acid(1.5~5.0)
Nc1ccc(cc1)C(O)=O,2.41,0:8,aniline:carboxylic_acid,4-Aminobenzoic acid,[H₂L]/[HL][H],0.0,25.0,8:0,carboxylic_acid:aniline,8(carboxylic_acid) > 0(aniline),carboxylic_acid,aniline(Unknown); carboxylic_acid(1.5~5.0)
Nc1cc2ccccc2c(c1)C(O)=O,4.52,0:12,aniline:carboxylic_acid,3-Amino-1-naphthoic acid,[HL]/[L][H],0.0,20.0,12:0,carboxylic_acid:aniline,12(carboxylic_acid) > 0(aniline),carboxylic_acid,aniline(Unknown); carboxylic_acid(1.5~5.0)
Nc1cc2ccccc2c(c1)C(O)=O,2.52,0:12,aniline:carboxylic_acid,3-Amino-1-naphthoic acid,[H₂L]/[HL][H],0.0,20.0,12:0,carboxylic_acid:aniline,12(carboxylic_acid) > 0(aniline),carboxylic_acid,aniline(Unknown); carboxylic_acid(1.5~5.0)
Nc1ccc(C(O)=O)c2ccccc12,4.84,0:6,aniline:carboxylic_acid,4-Amino-1-naphthoic acid,[HL]/[L][H],0.0,20.0,6:0,carboxylic_acid:aniline,6(carboxylic_acid) > 0(aniline),carboxylic_acid,aniline(Unknown); carboxylic_acid(1.5~5.0)
Nc1ccc(C(O)=O)c2ccccc12,2.0,0:6,aniline:carboxylic_acid,4-Amino-1-naphthoic acid,[H₂L]/[HL][H],0.0,20.0,6:0,carboxylic_acid:aniline,6(carboxylic_acid) > 0(aniline),carboxylic_acid,aniline(Unknown); carboxylic_acid(1.5~5.0)
Nc1cccc2c1cccc2C(O)=O,4.44,0:12,aniline:carboxylic_acid,5-Amino-1-naphthoic acid,[HL]/[L][H],0.0,20.0,12:0,carboxylic_acid:aniline,12(carboxylic_acid) > 0(aniline),carboxylic_acid,aniline(Unknown); carboxylic_acid(1.5~5.0)
Nc1cccc2c1cccc2C(O)=O,2.79,0:12,aniline:carboxylic_acid,5-Amino-1-naphthoic acid,[H₂L]/[HL][H],0.0,20.0,12:0,carboxylic_acid:aniline,12(carboxylic_acid) > 0(aniline),carboxylic_acid,aniline(Unknown); carboxylic_acid(1.5~5.0)
Nc1ccc2c(cccc2C(O)=O)c1,4.55,0:11,aniline:carboxylic_acid,6-Amino-1-naphthoic acid,[HL]/[L][H],0.0,20.0,11:0,carboxylic_acid:aniline,11(carboxylic_acid) > 0(aniline),carboxylic_acid,aniline(Unknown); carboxylic_acid(1.5~5.0)
Nc1ccc2c(cccc2C(O)=O)c1,2.88,0:11,aniline:carboxylic_acid,6-Amino-1-naphthoic acid,[H₂L]/[HL][H],0.0,20.0,11:0,carboxylic_acid:aniline,11(carboxylic_acid) > 0(aniline),carboxylic_acid,aniline(Unknown); carboxylic_acid(1.5~5.0)
Nc1cccc2cccc(C(O)=O)c12,4.55,0:11,aniline:carboxylic_acid,8-Amino-1-naphthoic acid,[HL]/[L][H],0.0,20.0,11:0,carboxylic_acid:aniline,11(carboxylic_acid) > 0(aniline),carboxylic_acid,aniline(Unknown); carboxylic_acid(1.5~5.0)
Nc1cccc2cccc(C(O)=O)c12,1.7,0:11,aniline:carboxylic_acid,8-Amino-1-naphthoic acid,[H₂L]/[HL][H],0.0,20.0,11:0,carboxylic_acid:aniline,11(carboxylic_acid) > 0(aniline),carboxylic_acid,aniline(Unknown); carboxylic_acid(1.5~5.0)
Nc1c(ccc2ccccc12)C(O)=O,4.96,0:12,aniline:carboxylic_acid,1-Amino-2-naphthoic acid,[HL]/[L][H],0.0,20.0,12:0,carboxylic_acid:aniline,12(carboxylic_acid) > 0(aniline),carboxylic_acid,aniline(Unknown); carboxylic_acid(1.5~5.0)
Nc1c(ccc2ccccc12)C(O)=O,1.0,0:12,aniline:carboxylic_acid,1-Amino-2-naphthoic acid,[H₂L]/[HL][H],0.0,20.0,12:0,carboxylic_acid:aniline,12(carboxylic_acid) > 0(aniline),carboxylic_acid,aniline(Unknown); carboxylic_acid(1.5~5.0)
Nc1cc2ccccc2cc1C(O)=O,4.87,0:12,aniline:carboxylic_acid,3-Amino-2-naphthoic acid,[HL]/[L][H],0.0,20.0,12:0,carboxylic_acid:aniline,12(carboxylic_acid) > 0(aniline),carboxylic_acid,aniline(Unknown); carboxylic_acid(1.5~5.0)
Nc1cc2ccccc2cc1C(O)=O,2.41,0:12,aniline:carboxylic_acid,3-Amino-2-naphthoic acid,[H₂L]/[HL][H],0.0,20.0,12:0,carboxylic_acid:aniline,12(carboxylic_acid) > 0(aniline),carboxylic_acid,aniline(Unknown); carboxylic_acid(1.5~5.0)
Nc1cc(cc2ccccc12)C(O)=O,4.49,0:12,aniline:carboxylic_acid,4-Amino-2-naphthoic acid,[HL]/[L][H],0.0,20.0,12:0,carboxylic_acid:aniline,12(carboxylic_acid) > 0(aniline),carboxylic_acid,aniline(Unknown); carboxylic_acid(1.5~5.0)
Nc1cc(cc2ccccc12)C(O)=O,2.91,0:12,aniline:carboxylic_acid,4-Amino-2-naphthoic acid,[H₂L]/[HL][H],0.0,20.0,12:0,carboxylic_acid:aniline,12(carboxylic_acid) > 0(aniline),carboxylic_acid,aniline(Unknown); carboxylic_acid(1.5~5.0)
Nc1ccc(cc1C(O)=O)[S](O)(=O)=O,4.29,0:8,aniline:carboxylic_acid,2-Amino-5-sulfobenzoic acid,[HL]/[L][H],0.1,25.0,8:0,carboxylic_acid:aniline,8(carboxylic_acid) > 0(aniline),carboxylic_acid,aniline(Unknown); carboxylic_acid(1.5~5.0)
Nc1ccc(cc1C(O)=O)[S](O)(=O)=O,1.6,0:8,aniline:carboxylic_acid,2-Amino-5-sulfobenzoic acid,[H₂L]/[HL][H],0.1,25.0,8:0,carboxylic_acid:aniline,8(carboxylic_acid) > 0(aniline),carboxylic_acid,aniline(Unknown); carboxylic_acid(1.5~5.0)
CNc1ccccc1C(O)=O,5.29,1:9,amine_secondary:carboxylic_acid,2-(Methylamino)benzoic acid,[HL]/[L][H],0.1,22.0,9:1,carboxylic_acid:amine_secondary,9(carboxylic_acid) > 1(amine_secondary),carboxylic_acid,amine_secondary(9.5~11.5); carboxylic_acid(1.5~5.0)
CNc1ccccc1C(O)=O,2.0,1:9,amine_secondary:carboxylic_acid,2-(Methylamino)benzoic acid,[H₂L]/[HL][H],0.1,22.0,9:1,carboxylic_acid:amine_secondary,9(carboxylic_acid) > 1(amine_secondary),carboxylic_acid,amine_secondary(9.5~11.5); carboxylic_acid(1.5~5.0)
CCNc1ccccc1C(O)=O,5.7,2:10,amine_secondary:carboxylic_acid,2-(Ethylamino)benzoic acid,[HL]/[L][H],0.1,22.0,10:2,carboxylic_acid:amine_secondary,10(carboxylic_acid) > 2(amine_secondary),carboxylic_acid,amine_secondary(9.5~11.5); carboxylic_acid(1.5~5.0)
CCNc1ccccc1C(O)=O,1.8,2:10,amine_secondary:carboxylic_acid,2-(Ethylamino)benzoic acid,[H₂L]/[HL][H],0.1,22.0,10:2,carboxylic_acid:amine_secondary,10(carboxylic_acid) > 2(amine_secondary),carboxylic_acid,amine_secondary(9.5~11.5); carboxylic_acid(1.5~5.0)
CN(C)c1ccccc1C(O)=O,1.6,1,tertiary_amine,2-(Dimethylamino)benzoic acid,[H₂L]/[HL][H],0.0,25.0,1,tertiary_amine,1(tertiary_amine),Unknown,tertiary_amine(Unknown)
CN(C)c1ccc(cc1)C(O)=O,5.0,1,tertiary_amine,4-(Dimethylamino)benzoic acid,[HL]/[L][H],0.0,25.0,1,tertiary_amine,1(tertiary_amine),Unknown,tertiary_amine(Unknown)
CN(C)c1ccc(cc1)C(O)=O,2.57,1,tertiary_amine,4-(Dimethylamino)benzoic acid,[H₂L]/[HL][H],0.0,25.0,1,tertiary_amine,1(tertiary_amine),Unknown,tertiary_amine(Unknown)
OCCNc1ccccc1C(O)=O,4.82,11:3,carboxylic_acid:amine_secondary,2-(2-Hydroxyethylamino)benzoic acid,[HL]/[L][H],0.1,22.0,11:3,carboxylic_acid:amine_secondary,11(carboxylic_acid) > 3(amine_secondary),carboxylic_acid,carboxylic_acid(1.5~5.0); amine_secondary(9.5~11.5)
OCCNc1ccccc1C(O)=O,2.0,11:3,carboxylic_acid:amine_secondary,2-(2-Hydroxyethylamino)benzoic acid,[H₂L]/[HL][H],0.1,22.0,11:3,carboxylic_acid:amine_secondary,11(carboxylic_acid) > 3(amine_secondary),carboxylic_acid,carboxylic_acid(1.5~5.0); amine_secondary(9.5~11.5)
CN(CCO)c1ccccc1C(O)=O,8.24,1,tertiary_amine,2-(N-2-Hydroxyethyl-N-methylamino)benzoic acid,[HL]/[L][H],0.1,22.0,1,tertiary_amine,1(tertiary_amine),Unknown,tertiary_amine(Unknown)
CCN(CCO)c1ccccc1C(O)=O,8.99,2,tertiary_amine,2-(N-2-Hydroxyethyl-N-ethylamino)benzoic acid,[HL]/[L][H],0.1,22.0,2,tertiary_amine,2(tertiary_amine),Unknown,tertiary_amine(Unknown)
OCCNc1cc(ccc1C(O)=O)C(O)=O,4.73,11:14:3,carboxylic_acid:carboxylic_acid:amine_secondary,"2-(2-Hydroxyethylamino)benzene-1,4-dicarboxylic acid",[HL]/[L][H],0.1,20.0,11:14:3,carboxylic_acid:carboxylic_acid:amine_secondary,11(carboxylic_acid) > 14(carboxylic_acid) > 3(amine_secondary),carboxylic_acid,carboxylic_acid(1.5~5.0); carboxylic_acid(1.5~5.0); amine_secondary(9.5~11.5)
OCCNc1cc(ccc1C(O)=O)C(O)=O,3.4,11:14:3,carboxylic_acid:carboxylic_acid:amine_secondary,"2-(2-Hydroxyethylamino)benzene-1,4-dicarboxylic acid",[H₂L]/[HL][H],0.1,20.0,11:14:3,carboxylic_acid:carboxylic_acid:amine_secondary,11(carboxylic_acid) > 14(carboxylic_acid) > 3(amine_secondary),carboxylic_acid,carboxylic_acid(1.5~5.0); carboxylic_acid(1.5~5.0); amine_secondary(9.5~11.5)
OCCNc1cc(ccc1C(O)=O)C(O)=O,1.4,11:14:3,carboxylic_acid:carboxylic_acid:amine_secondary,"2-(2-Hydroxyethylamino)benzene-1,4-dicarboxylic acid",[H₃L]/[H₂L][H],0.1,20.0,11:14:3,carboxylic_acid:carboxylic_acid:amine_secondary,11(carboxylic_acid) > 14(carboxylic_acid) > 3(amine_secondary),carboxylic_acid,carboxylic_acid(1.5~5.0); carboxylic_acid(1.5~5.0); amine_secondary(9.5~11.5)
OCCN(CCO)c1cc(ccc1C(O)=O)C(O)=O,7.0,17:14,carboxylic_acid:carboxylic_acid,"2-[Bis(2-hydroxyethyl)amino]benzene-1,4-dicarboxylic acid",[HL]/[L][H],0.1,25.0,17:14,carboxylic_acid:carboxylic_acid,17(carboxylic_acid) > 14(carboxylic_acid),carboxylic_acid,carboxylic_acid(1.5~5.0); carboxylic_acid(1.5~5.0)
OCCN(CCO)c1cc(ccc1C(O)=O)C(O)=O,3.1,17:14,carboxylic_acid:carboxylic_acid,"2-[Bis(2-hydroxyethyl)amino]benzene-1,4-dicarboxylic acid",[H₂L]/[HL][H],0.1,25.0,17:14,carboxylic_acid:carboxylic_acid,17(carboxylic_acid) > 14(carboxylic_acid),carboxylic_acid,carboxylic_acid(1.5~5.0); carboxylic_acid(1.5~5.0)
OCCNc1cc(C(O)=O)c(NCCO)cc1C(O)=O,6.74,8:18,carboxylic_acid:carboxylic_acid,"2,5-Bis(2-hydroxyethylamino)benzene-1,4-dicarboxylic acid",[HL]/[L][H],0.1,22.0,8:18,carboxylic_acid:carboxylic_acid,8(carboxylic_acid) > 18(carboxylic_acid),carboxylic_acid,carboxylic_acid(1.5~5.0); carboxylic_acid(1.5~5.0)
OCCNc1cc(C(O)=O)c(NCCO)cc1C(O)=O,3.66,8:18,carboxylic_acid:carboxylic_acid,"2,5-Bis(2-hydroxyethylamino)benzene-1,4-dicarboxylic acid",[H₂L]/[HL][H],0.1,22.0,8:18,carboxylic_acid:carboxylic_acid,8(carboxylic_acid) > 18(carboxylic_acid),carboxylic_acid,carboxylic_acid(1.5~5.0); carboxylic_acid(1.5~5.0)
CCOC(=O)c1cc(NCCO)c(cc1NCCO)C(O)=O,5.84,20:8,carboxylic_acid:amine_secondary,"2,5-Bis(2-hydroxyethylamino)benzene-1,4-dicarboxylic acid monoethyl ester",[HL]/[L][H],0.1,22.0,20:8,carboxylic_acid:amine_secondary,20(carboxylic_acid) > 8(amine_secondary),carboxylic_acid,carboxylic_acid(1.5~5.0); amine_secondary(9.5~11.5)
CCOC(=O)c1cc(NCCO)c(cc1NCCO)C(O)=O,2.1,20:8,carboxylic_acid:amine_secondary,"2,5-Bis(2-hydroxyethylamino)benzene-1,4-dicarboxylic acid monoethyl ester",[H₂L]/[HL][H],0.1,22.0,20:8,carboxylic_acid:amine_secondary,20(carboxylic_acid) > 8(amine_secondary),carboxylic_acid,carboxylic_acid(1.5~5.0); amine_secondary(9.5~11.5)
OCCNc1cc(C(O)=O)c(cc1C(O)=O)N(CCO)CCO,8.29,8:14,carboxylic_acid:carboxylic_acid,"2-Bis(2-hydroxyethyl)amino-5-(2-hydroxyethylamino)benzene-1,4-dicarboxylic acid",[HL]/[L][H],0.1,22.0,8:14,carboxylic_acid:carboxylic_acid,8(carboxylic_acid) > 14(carboxylic_acid),carboxylic_acid,carboxylic_acid(1.5~5.0); carboxylic_acid(1.5~5.0)
OCCNc1cc(C(O)=O)c(cc1C(O)=O)N(CCO)CCO,3.65,8:14,carboxylic_acid:carboxylic_acid,"2-Bis(2-hydroxyethyl)amino-5-(2-hydroxyethylamino)benzene-1,4-dicarboxylic acid",[H₂L]/[HL][H],0.1,22.0,8:14,carboxylic_acid:carboxylic_acid,8(carboxylic_acid) > 14(carboxylic_acid),carboxylic_acid,carboxylic_acid(1.5~5.0); carboxylic_acid(1.5~5.0)
OCCN(CCO)c1cc(C(O)=O)c(cc1C(O)=O)N(CCO)CCO,7.9,11:17:0,carboxylic_acid:carboxylic_acid:alcohol,"2,5-Bis[bis(2-hydroxyethyl)amino]benzene-1,4-dicarboxylic acid",[HL]/[L][H],0.1,22.0,11:17:0,carboxylic_acid:carboxylic_acid:alcohol,11(carboxylic_acid) > 17(carboxylic_acid) > 0(alcohol),carboxylic_acid,carboxylic_acid(1.5~5.0); carboxylic_acid(1.5~5.0); alcohol(15.0~18.0)
OCCN(CCO)c1cc(C(O)=O)c(cc1C(O)=O)N(CCO)CCO,4.96,11:17:0,carboxylic_acid:carboxylic_acid:alcohol,"2,5-Bis[bis(2-hydroxyethyl)amino]benzene-1,4-dicarboxylic acid",[H₂L]/[HL][H],0.1,22.0,11:17:0,carboxylic_acid:carboxylic_acid:alcohol,11(carboxylic_acid) > 17(carboxylic_acid) > 0(alcohol),carboxylic_acid,carboxylic_acid(1.5~5.0); carboxylic_acid(1.5~5.0); alcohol(15.0~18.0)
OCCN(CCO)c1cc(C(O)=O)c(cc1C(O)=O)N(CCO)CCO,1.9,11:17:0,carboxylic_acid:carboxylic_acid:alcohol,"2,5-Bis[bis(2-hydroxyethyl)amino]benzene-1,4-dicarboxylic acid",[H₃L]/[H₂L][H],0.1,22.0,11:17:0,carboxylic_acid:carboxylic_acid:alcohol,11(carboxylic_acid) > 17(carboxylic_acid) > 0(alcohol),carboxylic_acid,carboxylic_acid(1.5~5.0); carboxylic_acid(1.5~5.0); alcohol(15.0~18.0)
Nc1ccc(cc1N)C(O)=O,4.75,9:7,carboxylic_acid:aniline,"3,4-Diaminobenzoic acid",[HL]/[L][H],0.1,25.0,9:7,carboxylic_acid:aniline,9(carboxylic_acid) > 7(aniline),carboxylic_acid,carboxylic_acid(1.5~5.0); aniline(Unknown)
Nc1ccc(cc1N)C(O)=O,3.69,9:7,carboxylic_acid:aniline,"3,4-Diaminobenzoic acid",[H₂L]/[HL][H],0.1,25.0,9:7,carboxylic_acid:aniline,9(carboxylic_acid) > 7(aniline),carboxylic_acid,carboxylic_acid(1.5~5.0); aniline(Unknown)
OC(=O)CNc1cc(C(O)=O)c(NCC(O)=O)cc1C(O)=O,6.94,0:9:15:20,carboxylic_acid:carboxylic_acid:carboxylic_acid:carboxylic_acid,"2,5-Bis(carboxymethylamino)benzene-1,4-dicarboxylic acid",[HL]/[L][H],0.1,25.0,0:9:15:20,carboxylic_acid:carboxylic_acid:carboxylic_acid:carboxylic_acid,0(carboxylic_acid) > 9(carboxylic_acid) > 15(carboxylic_acid) > 20(carboxylic_acid),carboxylic_acid,carboxylic_acid(1.5~5.0); carboxylic_acid(1.5~5.0); carboxylic_acid(1.5~5.0); carboxylic_acid(1.5~5.0)
OC(=O)CNc1cc(C(O)=O)c(NCC(O)=O)cc1C(O)=O,4.26,0:9:15:20,carboxylic_acid:carboxylic_acid:carboxylic_acid:carboxylic_acid,"2,5-Bis(carboxymethylamino)benzene-1,4-dicarboxylic acid",[H₂L]/[HL][H],0.1,25.0,0:9:15:20,carboxylic_acid:carboxylic_acid:carboxylic_acid:carboxylic_acid,0(carboxylic_acid) > 9(carboxylic_acid) > 15(carboxylic_acid) > 20(carboxylic_acid),carboxylic_acid,carboxylic_acid(1.5~5.0); carboxylic_acid(1.5~5.0); carboxylic_acid(1.5~5.0); carboxylic_acid(1.5~5.0)
OC(=O)CNc1cc(C(O)=O)c(NCC(O)=O)cc1C(O)=O,3.32,0:9:15:20,carboxylic_acid:carboxylic_acid:carboxylic_acid:carboxylic_acid,"2,5-Bis(carboxymethylamino)benzene-1,4-dicarboxylic acid",[H₃L]/[H₂L][H],0.1,25.0,0:9:15:20,carboxylic_acid:carboxylic_acid:carboxylic_acid:carboxylic_acid,0(carboxylic_acid) > 9(carboxylic_acid) > 15(carboxylic_acid) > 20(carboxylic_acid),carboxylic_acid,carboxylic_acid(1.5~5.0); carboxylic_acid(1.5~5.0); carboxylic_acid(1.5~5.0); carboxylic_acid(1.5~5.0)
OC(=O)CNc1cc(C(O)=O)c(NCC(O)=O)cc1C(O)=O,2.32,0:9:15:20,carboxylic_acid:carboxylic_acid:carboxylic_acid:carboxylic_acid,"2,5-Bis(carboxymethylamino)benzene-1,4-dicarboxylic acid",[H₄L]/[H₃L][H],0.1,25.0,0:9:15:20,carboxylic_acid:carboxylic_acid:carboxylic_acid:carboxylic_acid,0(carboxylic_acid) > 9(carboxylic_acid) > 15(carboxylic_acid) > 20(carboxylic_acid),carboxylic_acid,carboxylic_acid(1.5~5.0); carboxylic_acid(1.5~5.0); carboxylic_acid(1.5~5.0); carboxylic_acid(1.5~5.0)
Nc1c(O)cccc1C(O)=O,10.12,9:3,carboxylic_acid:phenol,2-Amino-3-hydroxybenzoic acid,[HL]/[L][H],0.0,20.0,9:3,carboxylic_acid:phenol,9(carboxylic_acid) > 3(phenol),phenol,carboxylic_acid(1.5~5.0); phenol(8.0~11.0)
Nc1c(O)cccc1C(O)=O,5.19,9:3,carboxylic_acid:phenol,2-Amino-3-hydroxybenzoic acid,[H₂L]/[HL][H],0.0,20.0,9:3,carboxylic_acid:phenol,9(carboxylic_acid) > 3(phenol),carboxylic_acid,carboxylic_acid(1.5~5.0); phenol(8.0~11.0)
OC(=O)CNc1ccccc1,4.38,0:4,carboxylic_acid:amine_secondary,N-Phenylglycine,[HL]/[L][H],0.1,25.0,0:4,carboxylic_acid:amine_secondary,0(carboxylic_acid) > 4(amine_secondary),carboxylic_acid,carboxylic_acid(1.5~5.0); amine_secondary(9.5~11.5)
OC(=O)CNc1ccccc1,2.0,0:4,carboxylic_acid:amine_secondary,N-Phenylglycine,[H₂L]/[HL][H],0.1,25.0,0:4,carboxylic_acid:amine_secondary,0(carboxylic_acid) > 4(amine_secondary),carboxylic_acid,carboxylic_acid(1.5~5.0); amine_secondary(9.5~11.5)
OCCN(CC(O)=O)c1ccccc1C(O)=O,7.73,6:15,carboxylic_acid:carboxylic_acid,N-(2-Carboxyphenyl)-N-(2-hydroxyethyl)glycine,[HL]/[L][H],0.1,22.0,6:15,carboxylic_acid:carboxylic_acid,6(carboxylic_acid) > 15(carboxylic_acid),carboxylic_acid,carboxylic_acid(1.5~5.0); carboxylic_acid(1.5~5.0)
OCCN(CC(O)=O)c1ccccc1C(O)=O,2.41,6:15,carboxylic_acid:carboxylic_acid,N-(2-Carboxyphenyl)-N-(2-hydroxyethyl)glycine,[H₂L]/[HL][H],0.1,22.0,6:15,carboxylic_acid:carboxylic_acid,6(carboxylic_acid) > 15(carboxylic_acid),carboxylic_acid,carboxylic_acid(1.5~5.0); carboxylic_acid(1.5~5.0)
OCCN(CC(O)=O)c1cc(C(O)=O)c(cc1C(O)=O)N(CCO)CC(O)=O,9.06,6:12:18:26,carboxylic_acid:carboxylic_acid:carboxylic_acid:carboxylic_acid,"2,5-Bis[N-(carboxymethyl)-N-(2-hydroxyethyl)amino]benzene-1,4-dicarboxylic acid",[HL]/[L][H],0.1,22.0,6:12:18:26,carboxylic_acid:carboxylic_acid:carboxylic_acid:carboxylic_acid,6(carboxylic_acid) > 12(carboxylic_acid) > 18(carboxylic_acid) > 26(carboxylic_acid),carboxylic_acid,carboxylic_acid(1.5~5.0); carboxylic_acid(1.5~5.0); carboxylic_acid(1.5~5.0); carboxylic_acid(1.5~5.0)
OCCN(CC(O)=O)c1cc(C(O)=O)c(cc1C(O)=O)N(CCO)CC(O)=O,5.25,6:12:18:26,carboxylic_acid:carboxylic_acid:carboxylic_acid:carboxylic_acid,"2,5-Bis[N-(carboxymethyl)-N-(2-hydroxyethyl)amino]benzene-1,4-dicarboxylic acid",[H₂L]/[HL][H],0.1,22.0,6:12:18:26,carboxylic_acid:carboxylic_acid:carboxylic_acid:carboxylic_acid,6(carboxylic_acid) > 12(carboxylic_acid) > 18(carboxylic_acid) > 26(carboxylic_acid),carboxylic_acid,carboxylic_acid(1.5~5.0); carboxylic_acid(1.5~5.0); carboxylic_acid(1.5~5.0); carboxylic_acid(1.5~5.0)
OCCN(CC(O)=O)c1cc(C(O)=O)c(cc1C(O)=O)N(CCO)CC(O)=O,2.68,6:12:18:26,carboxylic_acid:carboxylic_acid:carboxylic_acid:carboxylic_acid,"2,5-Bis[N-(carboxymethyl)-N-(2-hydroxyethyl)amino]benzene-1,4-dicarboxylic acid",[H₃L]/[H₂L][H],0.1,22.0,6:12:18:26,carboxylic_acid:carboxylic_acid:carboxylic_acid:carboxylic_acid,6(carboxylic_acid) > 12(carboxylic_acid) > 18(carboxylic_acid) > 26(carboxylic_acid),carboxylic_acid,carboxylic_acid(1.5~5.0); carboxylic_acid(1.5~5.0); carboxylic_acid(1.5~5.0); carboxylic_acid(1.5~5.0)
OCCN(CC(O)=O)c1cc(C(O)=O)c(cc1C(O)=O)N(CCO)CC(O)=O,2.0,6:12:18:26,carboxylic_acid:carboxylic_acid:carboxylic_acid:carboxylic_acid,"2,5-Bis[N-(carboxymethyl)-N-(2-hydroxyethyl)amino]benzene-1,4-dicarboxylic acid",[H₄L]/[H₃L][H],0.1,22.0,6:12:18:26,carboxylic_acid:carboxylic_acid:carboxylic_acid:carboxylic_acid,6(carboxylic_acid) > 12(carboxylic_acid) > 18(carboxylic_acid) > 26(carboxylic_acid),carboxylic_acid,carboxylic_acid(1.5~5.0); carboxylic_acid(1.5~5.0); carboxylic_acid(1.5~5.0); carboxylic_acid(1.5~5.0)
OC(=O)CNc1cccc2cccnc12,4.26,1:4:12,carboxylic_acid:amine_secondary:pyridine_nitrogen,N-(8-Quinolyl)glycine,[HL]/[L][H],0.1,25.0,1:4:12,carboxylic_acid:amine_secondary:pyridine_nitrogen,1(carboxylic_acid) > 4(amine_secondary) > 12(pyridine_nitrogen),carboxylic_acid,carboxylic_acid(1.5~5.0); amine_secondary(9.5~11.5); pyridine_nitrogen(Unknown)
OC(=O)CNc1cccc2cccnc12,2.98,1:4:12,carboxylic_acid:amine_secondary:pyridine_nitrogen,N-(8-Quinolyl)glycine,[H₂L]/[HL][H],0.1,25.0,1:4:12,carboxylic_acid:amine_secondary:pyridine_nitrogen,1(carboxylic_acid) > 4(amine_secondary) > 12(pyridine_nitrogen),carboxylic_acid,carboxylic_acid(1.5~5.0); amine_secondary(9.5~11.5); pyridine_nitrogen(Unknown)
OC(=O)CNc1cccc2cccnc12,1.9,1:4:12,carboxylic_acid:amine_secondary:pyridine_nitrogen,N-(8-Quinolyl)glycine,[H₃L]/[H₂L][H],0.1,25.0,1:4:12,carboxylic_acid:amine_secondary:pyridine_nitrogen,1(carboxylic_acid) > 4(amine_secondary) > 12(pyridine_nitrogen),carboxylic_acid,carboxylic_acid(1.5~5.0); amine_secondary(9.5~11.5); pyridine_nitrogen(Unknown)
OC(=O)CC(Nc1ccc(NC(CC(O)=O)C(O)=O)cc1)C(O)=O,6.63,0:14:17:22,carboxylic_acid:carboxylic_acid:carboxylic_acid:carboxylic_acid,"1,4-Phenylenediiminodibutanedioic acid",[HL]/[L][H],0.5,25.0,0:14:17:22,carboxylic_acid:carboxylic_acid:carboxylic_acid:carboxylic_acid,0(carboxylic_acid) > 14(carboxylic_acid) > 17(carboxylic_acid) > 22(carboxylic_acid),carboxylic_acid,carboxylic_acid(1.5~5.0); carboxylic_acid(1.5~5.0); carboxylic_acid(1.5~5.0); carboxylic_acid(1.5~5.0)
OC(=O)CC(Nc1ccc(NC(CC(O)=O)C(O)=O)cc1)C(O)=O,4.62,0:14:17:22,carboxylic_acid:carboxylic_acid:carboxylic_acid:carboxylic_acid,"1,4-Phenylenediiminodibutanedioic acid",[H₂L]/[HL][H],0.5,25.0,0:14:17:22,carboxylic_acid:carboxylic_acid:carboxylic_acid:carboxylic_acid,0(carboxylic_acid) > 14(carboxylic_acid) > 17(carboxylic_acid) > 22(carboxylic_acid),carboxylic_acid,carboxylic_acid(1.5~5.0); carboxylic_acid(1.5~5.0); carboxylic_acid(1.5~5.0); carboxylic_acid(1.5~5.0)