SMILES,pKa,Dissociable_Atoms,Functional_Group,Name,Dissociable_Atoms_Ordered,Functional_Group_Ordered,Dissociation_Order
Nc1ccccc1O,4.89,7:0,phenol:aniline,2-Aminophenol,7:0,phenol:aniline,7(phenol) > 0(aniline)
Nc1ccccc1O,4.7,7:0,phenol:aniline,2-Aminophenol,7:0,phenol:aniline,7(phenol) > 0(aniline)
Nc1cccc(O)c1,9.82,6:0,phenol:aniline,3-Aminophenol,6:0,phenol:aniline,6(phenol) > 0(aniline)
Nc1cccc(O)c1,10.02,6:0,phenol:aniline,3-Aminophenol,6:0,phenol:aniline,6(phenol) > 0(aniline)
Nc1cccc(O)c1,4.28,6:0,phenol:aniline,3-Aminophenol,6:0,phenol:aniline,6(phenol) > 0(aniline)
Nc1cccc(O)c1,4.27,6:0,phenol:aniline,3-Aminophenol,6:0,phenol:aniline,6(phenol) > 0(aniline)
Nc1cc(ccc1O)[S](O)(=O)=O,9.15,7:0,phenol:aniline,3-Amino-4-hydroxybenzenesulfonic acid,7:0,phenol:aniline,7(phenol) > 0(aniline)
Nc1cc(ccc1O)[S](O)(=O)=O,4.12,7:0,phenol:aniline,3-Amino-4-hydroxybenzenesulfonic acid,7:0,phenol:aniline,7(phenol) > 0(aniline)
Nc1ccccc1C(=O)NO,8.82,0:9,amine_primary:amine_secondary,2-Aminobenzohydroxamic acid,0:9,amine_primary:amine_secondary,0(amine_primary) > 9(amine_secondary)
Nc1ccccc1C(=O)NO,2.68,0:9,amine_primary:amine_secondary,2-Aminobenzohydroxamic acid,0:9,amine_primary:amine_secondary,0(amine_primary) > 9(amine_secondary)
Nc1ccccc1N,4.66,7:0,aniline:aniline,"1,2-Diaminobenzene (o-Phenylenediamine)",7:0,aniline:aniline,7(aniline) > 0(aniline)
Nc1ccccc1N,4.72,7:0,aniline:aniline,"1,2-Diaminobenzene (o-Phenylenediamine)",7:0,aniline:aniline,7(aniline) > 0(aniline)
Nc1ccccc1N,0.6,7:0,aniline:aniline,"1,2-Diaminobenzene (o-Phenylenediamine)",7:0,aniline:aniline,7(aniline) > 0(aniline)
Nc1cccc(N)c1,4.89,0:6,aniline:aniline,"1,3-Diaminobenzene (m-Phenylenediamine)",0:6,aniline:aniline,0(aniline) > 6(aniline)
Nc1cccc(N)c1,5.11,0:6,aniline:aniline,"1,3-Diaminobenzene (m-Phenylenediamine)",0:6,aniline:aniline,0(aniline) > 6(aniline)
Nc1cccc(N)c1,2.4,0:6,aniline:aniline,"1,3-Diaminobenzene (m-Phenylenediamine)",0:6,aniline:aniline,0(aniline) > 6(aniline)
Nc1cccc(N)c1,2.5,0:6,aniline:aniline,"1,3-Diaminobenzene (m-Phenylenediamine)",0:6,aniline:aniline,0(aniline) > 6(aniline)
Nc1ccc(N)cc1,6.06,0:5,aniline:aniline,"1,4-Diaminobenzene (p-Phenylenediamine)",0:5,aniline:aniline,0(aniline) > 5(aniline)
Nc1ccc(N)cc1,6.31,0:5,aniline:aniline,"1,4-Diaminobenzene (p-Phenylenediamine)",0:5,aniline:aniline,0(aniline) > 5(aniline)
Nc1ccc(N)cc1,2.87,0:5,aniline:aniline,"1,4-Diaminobenzene (p-Phenylenediamine)",0:5,aniline:aniline,0(aniline) > 5(aniline)
Nc1ccc(N)cc1,2.97,0:5,aniline:aniline,"1,4-Diaminobenzene (p-Phenylenediamine)",0:5,aniline:aniline,0(aniline) > 5(aniline)
OC(=O)C(=O)C(O)=O,3.52,0:6,carboxylic_acid:carboxylic_acid,Oxopropanedioic acid (Ketomalonic acid) (Mesoxalic acid),0:6,carboxylic_acid:carboxylic_acid,0(carboxylic_acid) > 6(carboxylic_acid)
OC(=O)C(=O)C(O)=O,1.82,0:6,carboxylic_acid:carboxylic_acid,Oxopropanedioic acid (Ketomalonic acid) (Mesoxalic acid),0:6,carboxylic_acid:carboxylic_acid,0(carboxylic_acid) > 6(carboxylic_acid)
OC(=O)CC(=O)C(O)=O,3.9,0:7,carboxylic_acid:carboxylic_acid,Oxobutanedioic acid (Oxaloacetic acid),0:7,carboxylic_acid:carboxylic_acid,0(carboxylic_acid) > 7(carboxylic_acid)
OC(=O)CC(=O)C(O)=O,3.79,0:7,carboxylic_acid:carboxylic_acid,Oxobutanedioic acid (Oxaloacetic acid),0:7,carboxylic_acid:carboxylic_acid,0(carboxylic_acid) > 7(carboxylic_acid)
OC(=O)CC(=O)C(O)=O,3.73,0:7,carboxylic_acid:carboxylic_acid,Oxobutanedioic acid (Oxaloacetic acid),0:7,carboxylic_acid:carboxylic_acid,0(carboxylic_acid) > 7(carboxylic_acid)
OC(=O)CC(=O)C(O)=O,4.37,0:7,carboxylic_acid:carboxylic_acid,Oxobutanedioic acid (Oxaloacetic acid),0:7,carboxylic_acid:carboxylic_acid,0(carboxylic_acid) > 7(carboxylic_acid)
OC(=O)CC(=O)C(O)=O,2.26,0:7,carboxylic_acid:carboxylic_acid,Oxobutanedioic acid (Oxaloacetic acid),0:7,carboxylic_acid:carboxylic_acid,0(carboxylic_acid) > 7(carboxylic_acid)
OC(=O)CC(=O)C(O)=O,2.17,0:7,carboxylic_acid:carboxylic_acid,Oxobutanedioic acid (Oxaloacetic acid),0:7,carboxylic_acid:carboxylic_acid,0(carboxylic_acid) > 7(carboxylic_acid)
OC(=O)CC(=O)C(O)=O,2.2,0:7,carboxylic_acid:carboxylic_acid,Oxobutanedioic acid (Oxaloacetic acid),0:7,carboxylic_acid:carboxylic_acid,0(carboxylic_acid) > 7(carboxylic_acid)
OC(=O)CC(=O)C(O)=O,2.56,0:7,carboxylic_acid:carboxylic_acid,Oxobutanedioic acid (Oxaloacetic acid),0:7,carboxylic_acid:carboxylic_acid,0(carboxylic_acid) > 7(carboxylic_acid)
CC(C(O)=O)C(=O)C(O)=O,4.18,3:8,carboxylic_acid:carboxylic_acid,"1-Oxopropane-1,2-dicarboxylic acid (2-Oxalopropanoic acid)",3:8,carboxylic_acid:carboxylic_acid,3(carboxylic_acid) > 8(carboxylic_acid)
CC(C(O)=O)C(=O)C(O)=O,1.7,3:8,carboxylic_acid:carboxylic_acid,"1-Oxopropane-1,2-dicarboxylic acid (2-Oxalopropanoic acid)",3:8,carboxylic_acid:carboxylic_acid,3(carboxylic_acid) > 8(carboxylic_acid)
CC(C)(C(O)=O)C(=O)C(O)=O,4.62,4:9,carboxylic_acid:carboxylic_acid,"3,3-Dimethyl-2-oxobutanedioic acid",4:9,carboxylic_acid:carboxylic_acid,4(carboxylic_acid) > 9(carboxylic_acid)
CC(C)(C(O)=O)C(=O)C(O)=O,1.8,4:9,carboxylic_acid:carboxylic_acid,"3,3-Dimethyl-2-oxobutanedioic acid",4:9,carboxylic_acid:carboxylic_acid,4(carboxylic_acid) > 9(carboxylic_acid)
OC(=O)CSCC(O)=O,4.13,0:7,carboxylic_acid:carboxylic_acid,Thiodiacetic acid,0:7,carboxylic_acid:carboxylic_acid,0(carboxylic_acid) > 7(carboxylic_acid)
OC(=O)CSCC(O)=O,4.17,0:7,carboxylic_acid:carboxylic_acid,Thiodiacetic acid,0:7,carboxylic_acid:carboxylic_acid,0(carboxylic_acid) > 7(carboxylic_acid)
OC(=O)CSCC(O)=O,4.0,0:7,carboxylic_acid:carboxylic_acid,Thiodiacetic acid,0:7,carboxylic_acid:carboxylic_acid,0(carboxylic_acid) > 7(carboxylic_acid)
OC(=O)CSCC(O)=O,3.99,0:7,carboxylic_acid:carboxylic_acid,Thiodiacetic acid,0:7,carboxylic_acid:carboxylic_acid,0(carboxylic_acid) > 7(carboxylic_acid)
OC(=O)CSCC(O)=O,3.98,0:7,carboxylic_acid:carboxylic_acid,Thiodiacetic acid,0:7,carboxylic_acid:carboxylic_acid,0(carboxylic_acid) > 7(carboxylic_acid)
OC(=O)CSCC(O)=O,4.1,0:7,carboxylic_acid:carboxylic_acid,Thiodiacetic acid,0:7,carboxylic_acid:carboxylic_acid,0(carboxylic_acid) > 7(carboxylic_acid)
OC(=O)CSCC(O)=O,4.14,0:7,carboxylic_acid:carboxylic_acid,Thiodiacetic acid,0:7,carboxylic_acid:carboxylic_acid,0(carboxylic_acid) > 7(carboxylic_acid)
OC(=O)CSCC(O)=O,4.12,0:7,carboxylic_acid:carboxylic_acid,Thiodiacetic acid,0:7,carboxylic_acid:carboxylic_acid,0(carboxylic_acid) > 7(carboxylic_acid)
OC(=O)CSCC(O)=O,4.24,0:7,carboxylic_acid:carboxylic_acid,Thiodiacetic acid,0:7,carboxylic_acid:carboxylic_acid,0(carboxylic_acid) > 7(carboxylic_acid)
OC(=O)CSCC(O)=O,4.35,0:7,carboxylic_acid:carboxylic_acid,Thiodiacetic acid,0:7,carboxylic_acid:carboxylic_acid,0(carboxylic_acid) > 7(carboxylic_acid)
OC(=O)CSCC(O)=O,4.56,0:7,carboxylic_acid:carboxylic_acid,Thiodiacetic acid,0:7,carboxylic_acid:carboxylic_acid,0(carboxylic_acid) > 7(carboxylic_acid)
OC(=O)CSCC(O)=O,4.55,0:7,carboxylic_acid:carboxylic_acid,Thiodiacetic acid,0:7,carboxylic_acid:carboxylic_acid,0(carboxylic_acid) > 7(carboxylic_acid)
OC(=O)CSCC(O)=O,3.14,0:7,carboxylic_acid:carboxylic_acid,Thiodiacetic acid,0:7,carboxylic_acid:carboxylic_acid,0(carboxylic_acid) > 7(carboxylic_acid)
OC(=O)CSCC(O)=O,3.07,0:7,carboxylic_acid:carboxylic_acid,Thiodiacetic acid,0:7,carboxylic_acid:carboxylic_acid,0(carboxylic_acid) > 7(carboxylic_acid)
OC(=O)CSCC(O)=O,3.12,0:7,carboxylic_acid:carboxylic_acid,Thiodiacetic acid,0:7,carboxylic_acid:carboxylic_acid,0(carboxylic_acid) > 7(carboxylic_acid)
OC(=O)CSCC(O)=O,3.18,0:7,carboxylic_acid:carboxylic_acid,Thiodiacetic acid,0:7,carboxylic_acid:carboxylic_acid,0(carboxylic_acid) > 7(carboxylic_acid)
OC(=O)CSCC(O)=O,3.22,0:7,carboxylic_acid:carboxylic_acid,Thiodiacetic acid,0:7,carboxylic_acid:carboxylic_acid,0(carboxylic_acid) > 7(carboxylic_acid)
OC(=O)CSCC(O)=O,3.27,0:7,carboxylic_acid:carboxylic_acid,Thiodiacetic acid,0:7,carboxylic_acid:carboxylic_acid,0(carboxylic_acid) > 7(carboxylic_acid)
OC(=O)CSCC(O)=O,3.33,0:7,carboxylic_acid:carboxylic_acid,Thiodiacetic acid,0:7,carboxylic_acid:carboxylic_acid,0(carboxylic_acid) > 7(carboxylic_acid)
OC(=O)CSCC(O)=O,3.46,0:7,carboxylic_acid:carboxylic_acid,Thiodiacetic acid,0:7,carboxylic_acid:carboxylic_acid,0(carboxylic_acid) > 7(carboxylic_acid)
OC(=O)CSCC(O)=O,3.66,0:7,carboxylic_acid:carboxylic_acid,Thiodiacetic acid,0:7,carboxylic_acid:carboxylic_acid,0(carboxylic_acid) > 7(carboxylic_acid)
OC(=O)CSCC(O)=O,3.32,0:7,carboxylic_acid:carboxylic_acid,Thiodiacetic acid,0:7,carboxylic_acid:carboxylic_acid,0(carboxylic_acid) > 7(carboxylic_acid)
OC(=O)CCSCC(O)=O,4.34,0:8,carboxylic_acid:carboxylic_acid,(2-Carboxyethylthio)acetic acid,0:8,carboxylic_acid:carboxylic_acid,0(carboxylic_acid) > 8(carboxylic_acid)
OC(=O)CCSCC(O)=O,4.52,0:8,carboxylic_acid:carboxylic_acid,(2-Carboxyethylthio)acetic acid,0:8,carboxylic_acid:carboxylic_acid,0(carboxylic_acid) > 8(carboxylic_acid)
OC(=O)CCSCC(O)=O,3.27,0:8,carboxylic_acid:carboxylic_acid,(2-Carboxyethylthio)acetic acid,0:8,carboxylic_acid:carboxylic_acid,0(carboxylic_acid) > 8(carboxylic_acid)
OC(=O)CCSCC(O)=O,3.57,0:8,carboxylic_acid:carboxylic_acid,(2-Carboxyethylthio)acetic acid,0:8,carboxylic_acid:carboxylic_acid,0(carboxylic_acid) > 8(carboxylic_acid)
OC(=O)CCSCCC(O)=O,4.67,0:9,carboxylic_acid:carboxylic_acid,"3,3'-Thiodipropanoic acid",0:9,carboxylic_acid:carboxylic_acid,0(carboxylic_acid) > 9(carboxylic_acid)
OC(=O)CCSCCC(O)=O,4.73,0:9,carboxylic_acid:carboxylic_acid,"3,3'-Thiodipropanoic acid",0:9,carboxylic_acid:carboxylic_acid,0(carboxylic_acid) > 9(carboxylic_acid)
OC(=O)CCSCCC(O)=O,4.53,0:9,carboxylic_acid:carboxylic_acid,"3,3'-Thiodipropanoic acid",0:9,carboxylic_acid:carboxylic_acid,0(carboxylic_acid) > 9(carboxylic_acid)
OC(=O)CCSCCC(O)=O,4.5,0:9,carboxylic_acid:carboxylic_acid,"3,3'-Thiodipropanoic acid",0:9,carboxylic_acid:carboxylic_acid,0(carboxylic_acid) > 9(carboxylic_acid)
OC(=O)CCSCCC(O)=O,4.64,0:9,carboxylic_acid:carboxylic_acid,"3,3'-Thiodipropanoic acid",0:9,carboxylic_acid:carboxylic_acid,0(carboxylic_acid) > 9(carboxylic_acid)
OC(=O)CCSCCC(O)=O,4.7,0:9,carboxylic_acid:carboxylic_acid,"3,3'-Thiodipropanoic acid",0:9,carboxylic_acid:carboxylic_acid,0(carboxylic_acid) > 9(carboxylic_acid)
OC(=O)CCSCCC(O)=O,4.8,0:9,carboxylic_acid:carboxylic_acid,"3,3'-Thiodipropanoic acid",0:9,carboxylic_acid:carboxylic_acid,0(carboxylic_acid) > 9(carboxylic_acid)
OC(=O)CCSCCC(O)=O,4.72,0:9,carboxylic_acid:carboxylic_acid,"3,3'-Thiodipropanoic acid",0:9,carboxylic_acid:carboxylic_acid,0(carboxylic_acid) > 9(carboxylic_acid)
OC(=O)CCSCCC(O)=O,4.95,0:9,carboxylic_acid:carboxylic_acid,"3,3'-Thiodipropanoic acid",0:9,carboxylic_acid:carboxylic_acid,0(carboxylic_acid) > 9(carboxylic_acid)
OC(=O)CCSCCC(O)=O,5.09,0:9,carboxylic_acid:carboxylic_acid,"3,3'-Thiodipropanoic acid",0:9,carboxylic_acid:carboxylic_acid,0(carboxylic_acid) > 9(carboxylic_acid)
OC(=O)CCSCCC(O)=O,3.9,0:9,carboxylic_acid:carboxylic_acid,"3,3'-Thiodipropanoic acid",0:9,carboxylic_acid:carboxylic_acid,0(carboxylic_acid) > 9(carboxylic_acid)
OC(=O)CCSCCC(O)=O,3.95,0:9,carboxylic_acid:carboxylic_acid,"3,3'-Thiodipropanoic acid",0:9,carboxylic_acid:carboxylic_acid,0(carboxylic_acid) > 9(carboxylic_acid)
OC(=O)CCSCCC(O)=O,3.83,0:9,carboxylic_acid:carboxylic_acid,"3,3'-Thiodipropanoic acid",0:9,carboxylic_acid:carboxylic_acid,0(carboxylic_acid) > 9(carboxylic_acid)
OC(=O)CCSCCC(O)=O,3.82,0:9,carboxylic_acid:carboxylic_acid,"3,3'-Thiodipropanoic acid",0:9,carboxylic_acid:carboxylic_acid,0(carboxylic_acid) > 9(carboxylic_acid)
OC(=O)CCSCCC(O)=O,4.0,0:9,carboxylic_acid:carboxylic_acid,"3,3'-Thiodipropanoic acid",0:9,carboxylic_acid:carboxylic_acid,0(carboxylic_acid) > 9(carboxylic_acid)
OC(=O)CCSCCC(O)=O,4.15,0:9,carboxylic_acid:carboxylic_acid,"3,3'-Thiodipropanoic acid",0:9,carboxylic_acid:carboxylic_acid,0(carboxylic_acid) > 9(carboxylic_acid)
OC(=O)CCSCCC(O)=O,4.09,0:9,carboxylic_acid:carboxylic_acid,"3,3'-Thiodipropanoic acid",0:9,carboxylic_acid:carboxylic_acid,0(carboxylic_acid) > 9(carboxylic_acid)
OC(=O)CCSCCC(O)=O,4.17,0:9,carboxylic_acid:carboxylic_acid,"3,3'-Thiodipropanoic acid",0:9,carboxylic_acid:carboxylic_acid,0(carboxylic_acid) > 9(carboxylic_acid)
OC(=O)CCSCCC(O)=O,4.37,0:9,carboxylic_acid:carboxylic_acid,"3,3'-Thiodipropanoic acid",0:9,carboxylic_acid:carboxylic_acid,0(carboxylic_acid) > 9(carboxylic_acid)
OC(=O)CCSCCC(O)=O,4.11,0:9,carboxylic_acid:carboxylic_acid,"3,3'-Thiodipropanoic acid",0:9,carboxylic_acid:carboxylic_acid,0(carboxylic_acid) > 9(carboxylic_acid)
OC(=O)CCCSCCCC(O)=O,4.9,0:11,carboxylic_acid:carboxylic_acid,"4,4'-Thiodibutanoic acid",0:11,carboxylic_acid:carboxylic_acid,0(carboxylic_acid) > 11(carboxylic_acid)
OC(=O)CCCSCCCC(O)=O,4.79,0:11,carboxylic_acid:carboxylic_acid,"4,4'-Thiodibutanoic acid",0:11,carboxylic_acid:carboxylic_acid,0(carboxylic_acid) > 11(carboxylic_acid)
OC(=O)CCCSCCCC(O)=O,4.8,0:11,carboxylic_acid:carboxylic_acid,"4,4'-Thiodibutanoic acid",0:11,carboxylic_acid:carboxylic_acid,0(carboxylic_acid) > 11(carboxylic_acid)
OC(=O)CCCSCCCC(O)=O,4.94,0:11,carboxylic_acid:carboxylic_acid,"4,4'-Thiodibutanoic acid",0:11,carboxylic_acid:carboxylic_acid,0(carboxylic_acid) > 11(carboxylic_acid)
OC(=O)CCCSCCCC(O)=O,5.06,0:11,carboxylic_acid:carboxylic_acid,"4,4'-Thiodibutanoic acid",0:11,carboxylic_acid:carboxylic_acid,0(carboxylic_acid) > 11(carboxylic_acid)
OC(=O)CCCSCCCC(O)=O,5.12,0:11,carboxylic_acid:carboxylic_acid,"4,4'-Thiodibutanoic acid",0:11,carboxylic_acid:carboxylic_acid,0(carboxylic_acid) > 11(carboxylic_acid)
OC(=O)CCCSCCCC(O)=O,5.33,0:11,carboxylic_acid:carboxylic_acid,"4,4'-Thiodibutanoic acid",0:11,carboxylic_acid:carboxylic_acid,0(carboxylic_acid) > 11(carboxylic_acid)
OC(=O)CCCSCCCC(O)=O,5.26,0:11,carboxylic_acid:carboxylic_acid,"4,4'-Thiodibutanoic acid",0:11,carboxylic_acid:carboxylic_acid,0(carboxylic_acid) > 11(carboxylic_acid)
OC(=O)CCCSCCCC(O)=O,4.18,0:11,carboxylic_acid:carboxylic_acid,"4,4'-Thiodibutanoic acid",0:11,carboxylic_acid:carboxylic_acid,0(carboxylic_acid) > 11(carboxylic_acid)
OC(=O)CCCSCCCC(O)=O,4.12,0:11,carboxylic_acid:carboxylic_acid,"4,4'-Thiodibutanoic acid",0:11,carboxylic_acid:carboxylic_acid,0(carboxylic_acid) > 11(carboxylic_acid)
OC(=O)CCCSCCCC(O)=O,4.15,0:11,carboxylic_acid:carboxylic_acid,"4,4'-Thiodibutanoic acid",0:11,carboxylic_acid:carboxylic_acid,0(carboxylic_acid) > 11(carboxylic_acid)
OC(=O)CCCSCCCC(O)=O,4.24,0:11,carboxylic_acid:carboxylic_acid,"4,4'-Thiodibutanoic acid",0:11,carboxylic_acid:carboxylic_acid,0(carboxylic_acid) > 11(carboxylic_acid)
OC(=O)CCCSCCCC(O)=O,4.31,0:11,carboxylic_acid:carboxylic_acid,"4,4'-Thiodibutanoic acid",0:11,carboxylic_acid:carboxylic_acid,0(carboxylic_acid) > 11(carboxylic_acid)
OC(=O)CCCSCCCC(O)=O,4.41,0:11,carboxylic_acid:carboxylic_acid,"4,4'-Thiodibutanoic acid",0:11,carboxylic_acid:carboxylic_acid,0(carboxylic_acid) > 11(carboxylic_acid)
OC(=O)CCCSCCCC(O)=O,4.5,0:11,carboxylic_acid:carboxylic_acid,"4,4'-Thiodibutanoic acid",0:11,carboxylic_acid:carboxylic_acid,0(carboxylic_acid) > 11(carboxylic_acid)
OC(=O)CCCSCCCC(O)=O,4.72,0:11,carboxylic_acid:carboxylic_acid,"4,4'-Thiodibutanoic acid",0:11,carboxylic_acid:carboxylic_acid,0(carboxylic_acid) > 11(carboxylic_acid)
OC(=O)CCCSCCCC(O)=O,4.35,0:11,carboxylic_acid:carboxylic_acid,"4,4'-Thiodibutanoic acid",0:11,carboxylic_acid:carboxylic_acid,0(carboxylic_acid) > 11(carboxylic_acid)
OC(=O)CSSCC(O)=O,3.8,0:8,carboxylic_acid:carboxylic_acid,Dithiodiacetic acid,0:8,carboxylic_acid:carboxylic_acid,0(carboxylic_acid) > 8(carboxylic_acid)
OC(=O)CSSCC(O)=O,3.81,0:8,carboxylic_acid:carboxylic_acid,Dithiodiacetic acid,0:8,carboxylic_acid:carboxylic_acid,0(carboxylic_acid) > 8(carboxylic_acid)
OC(=O)CSSCC(O)=O,3.65,0:8,carboxylic_acid:carboxylic_acid,Dithiodiacetic acid,0:8,carboxylic_acid:carboxylic_acid,0(carboxylic_acid) > 8(carboxylic_acid)
OC(=O)CSSCC(O)=O,3.64,0:8,carboxylic_acid:carboxylic_acid,Dithiodiacetic acid,0:8,carboxylic_acid:carboxylic_acid,0(carboxylic_acid) > 8(carboxylic_acid)
OC(=O)CSSCC(O)=O,3.69,0:8,carboxylic_acid:carboxylic_acid,Dithiodiacetic acid,0:8,carboxylic_acid:carboxylic_acid,0(carboxylic_acid) > 8(carboxylic_acid)
OC(=O)CSSCC(O)=O,3.75,0:8,carboxylic_acid:carboxylic_acid,Dithiodiacetic acid,0:8,carboxylic_acid:carboxylic_acid,0(carboxylic_acid) > 8(carboxylic_acid)
OC(=O)CSSCC(O)=O,3.9,0:8,carboxylic_acid:carboxylic_acid,Dithiodiacetic acid,0:8,carboxylic_acid:carboxylic_acid,0(carboxylic_acid) > 8(carboxylic_acid)
OC(=O)CSSCC(O)=O,3.83,0:8,carboxylic_acid:carboxylic_acid,Dithiodiacetic acid,0:8,carboxylic_acid:carboxylic_acid,0(carboxylic_acid) > 8(carboxylic_acid)
OC(=O)CSSCC(O)=O,3.92,0:8,carboxylic_acid:carboxylic_acid,Dithiodiacetic acid,0:8,carboxylic_acid:carboxylic_acid,0(carboxylic_acid) > 8(carboxylic_acid)
OC(=O)CSSCC(O)=O,4.2,0:8,carboxylic_acid:carboxylic_acid,Dithiodiacetic acid,0:8,carboxylic_acid:carboxylic_acid,0(carboxylic_acid) > 8(carboxylic_acid)
OC(=O)CSSCC(O)=O,2.94,0:8,carboxylic_acid:carboxylic_acid,Dithiodiacetic acid,0:8,carboxylic_acid:carboxylic_acid,0(carboxylic_acid) > 8(carboxylic_acid)
OC(=O)CSSCC(O)=O,2.88,0:8,carboxylic_acid:carboxylic_acid,Dithiodiacetic acid,0:8,carboxylic_acid:carboxylic_acid,0(carboxylic_acid) > 8(carboxylic_acid)
OC(=O)CSSCC(O)=O,2.87,0:8,carboxylic_acid:carboxylic_acid,Dithiodiacetic acid,0:8,carboxylic_acid:carboxylic_acid,0(carboxylic_acid) > 8(carboxylic_acid)
OC(=O)CSSCC(O)=O,2.9,0:8,carboxylic_acid:carboxylic_acid,Dithiodiacetic acid,0:8,carboxylic_acid:carboxylic_acid,0(carboxylic_acid) > 8(carboxylic_acid)
OC(=O)CSSCC(O)=O,2.8,0:8,carboxylic_acid:carboxylic_acid,Dithiodiacetic acid,0:8,carboxylic_acid:carboxylic_acid,0(carboxylic_acid) > 8(carboxylic_acid)
OC(=O)CSSCC(O)=O,2.97,0:8,carboxylic_acid:carboxylic_acid,Dithiodiacetic acid,0:8,carboxylic_acid:carboxylic_acid,0(carboxylic_acid) > 8(carboxylic_acid)
OC(=O)CSSCC(O)=O,3.01,0:8,carboxylic_acid:carboxylic_acid,Dithiodiacetic acid,0:8,carboxylic_acid:carboxylic_acid,0(carboxylic_acid) > 8(carboxylic_acid)
OC(=O)CSSCC(O)=O,2.91,0:8,carboxylic_acid:carboxylic_acid,Dithiodiacetic acid,0:8,carboxylic_acid:carboxylic_acid,0(carboxylic_acid) > 8(carboxylic_acid)
OC(=O)CSSCC(O)=O,3.12,0:8,carboxylic_acid:carboxylic_acid,Dithiodiacetic acid,0:8,carboxylic_acid:carboxylic_acid,0(carboxylic_acid) > 8(carboxylic_acid)
OC(=O)CSSCC(O)=O,3.18,0:8,carboxylic_acid:carboxylic_acid,Dithiodiacetic acid,0:8,carboxylic_acid:carboxylic_acid,0(carboxylic_acid) > 8(carboxylic_acid)
OC(=O)CSSCC(O)=O,3.07,0:8,carboxylic_acid:carboxylic_acid,Dithiodiacetic acid,0:8,carboxylic_acid:carboxylic_acid,0(carboxylic_acid) > 8(carboxylic_acid)
OC(=O)CCSSCCC(O)=O,4.47,0:10,carboxylic_acid:carboxylic_acid,"3,3'-Dithiodipropanoic acid",0:10,carboxylic_acid:carboxylic_acid,0(carboxylic_acid) > 10(carboxylic_acid)
OC(=O)CCSSCCC(O)=O,4.99,0:10,carboxylic_acid:carboxylic_acid,"3,3'-Dithiodipropanoic acid",0:10,carboxylic_acid:carboxylic_acid,0(carboxylic_acid) > 10(carboxylic_acid)
OC(=O)CCSSCCC(O)=O,3.88,0:10,carboxylic_acid:carboxylic_acid,"3,3'-Dithiodipropanoic acid",0:10,carboxylic_acid:carboxylic_acid,0(carboxylic_acid) > 10(carboxylic_acid)
OC(=O)CCSSCCC(O)=O,4.34,0:10,carboxylic_acid:carboxylic_acid,"3,3'-Dithiodipropanoic acid",0:10,carboxylic_acid:carboxylic_acid,0(carboxylic_acid) > 10(carboxylic_acid)
OC(=O)CCCSSCCCC(O)=O,5.46,0:12,carboxylic_acid:carboxylic_acid,"4,4'-Dithiodibutanoic acid",0:12,carboxylic_acid:carboxylic_acid,0(carboxylic_acid) > 12(carboxylic_acid)
OC(=O)CCCSSCCCC(O)=O,4.79,0:12,carboxylic_acid:carboxylic_acid,"4,4'-Dithiodibutanoic acid",0:12,carboxylic_acid:carboxylic_acid,0(carboxylic_acid) > 12(carboxylic_acid)
OC(=O)CSCSCC(O)=O,3.96,0:9,carboxylic_acid:carboxylic_acid,(Methylenedithio)diacetic acid,0:9,carboxylic_acid:carboxylic_acid,0(carboxylic_acid) > 9(carboxylic_acid)
OC(=O)CSCSCC(O)=O,3.83,0:9,carboxylic_acid:carboxylic_acid,(Methylenedithio)diacetic acid,0:9,carboxylic_acid:carboxylic_acid,0(carboxylic_acid) > 9(carboxylic_acid)
OC(=O)CSCSCC(O)=O,3.99,0:9,carboxylic_acid:carboxylic_acid,(Methylenedithio)diacetic acid,0:9,carboxylic_acid:carboxylic_acid,0(carboxylic_acid) > 9(carboxylic_acid)