SMILES,pKa,Dissociable_Atoms,Functional_Group,Name,Dissociable_Atoms_Ordered,Functional_Group_Ordered,Dissociation_Order
COc1cccc(N)c1,4.204,7,aniline,3-Methoxyaniline (m-Anisidine),7,aniline,7(aniline)
COc1cccc(N)c1,4.034,7,aniline,3-Methoxyaniline (m-Anisidine),7,aniline,7(aniline)
COc1ccc(N)cc1,5.33,6,aniline,4-Methoxyaniline (p-Anisidine),6,aniline,6(aniline)
COc1ccc(N)cc1,5.577,6,aniline,4-Methoxyaniline (p-Anisidine),6,aniline,6(aniline)
COc1ccc(N)cc1,5.357,6,aniline,4-Methoxyaniline (p-Anisidine),6,aniline,6(aniline)
COc1ccc(N)cc1,5.162,6,aniline,4-Methoxyaniline (p-Anisidine),6,aniline,6(aniline)
CCOc1ccccc1N,4.482,9,aniline,2-Ethoxyaniline (o-Phenetidine),9,aniline,9(aniline)
CCOc1cccc(N)c1,4.17,8,aniline,3-Ethoxyaniline (m-Phenetidine),8,aniline,8(aniline)
CCOc1ccc(N)cc1,5.25,7,aniline,4-Ethoxyaniline (p-Phenetidine),7,aniline,7(aniline)
CC(=O)c1ccc(N)cc1,2.29,7,aniline,4-Acetylaniline,7,aniline,7(aniline)
Cc1ccc(N)c(N)c1,4.79,5,aniline,"1,2-Diamino-4-methylbenzene (4-Methyl-o-phenylenediamine)",5,aniline,5(aniline)
Cc1ccc(N)c(N)c1,4.97,5,aniline,"1,2-Diamino-4-methylbenzene (4-Methyl-o-phenylenediamine)",5,aniline,5(aniline)
COc1ccc(N)c(N)c1,5.1,6,aniline,"1,2-Diamino-4-methoxybenzene (4-Methoxy-o-phenylenediamine)",6,aniline,6(aniline)
CNc1ccccc1,4.988,1,amine_secondary,N-Methylaminobenzene (N-Methylaniline),1,amine_secondary,1(amine_secondary)
CNc1ccccc1,4.832,1,amine_secondary,N-Methylaminobenzene (N-Methylaniline),1,amine_secondary,1(amine_secondary)
CNc1ccccc1,4.692,1,amine_secondary,N-Methylaminobenzene (N-Methylaniline),1,amine_secondary,1(amine_secondary)
CCNc1ccccc1,5.418,2,amine_secondary,N-Ethylaminobenzene (N-Ethylaniline),2,amine_secondary,2(amine_secondary)
CCNc1ccccc1,5.252,2,amine_secondary,N-Ethylaminobenzene (N-Ethylaniline),2,amine_secondary,2(amine_secondary)
CCNc1ccccc1,5.095,2,amine_secondary,N-Ethylaminobenzene (N-Ethylaniline),2,amine_secondary,2(amine_secondary)
CCCNc1ccccc1,5.281,3,amine_secondary,N-Propylaminobenzene (N-Propylaniline),3,amine_secondary,3(amine_secondary)
CCCNc1ccccc1,5.101,3,amine_secondary,N-Propylaminobenzene (N-Propylaniline),3,amine_secondary,3(amine_secondary)
CCCNc1ccccc1,4.928,3,amine_secondary,N-Propylaminobenzene (N-Propylaniline),3,amine_secondary,3(amine_secondary)
CC(C)Nc1ccccc1,5.848,3,amine_secondary,N-2-Propylaminobenzene (N-Isopropylaniline),3,amine_secondary,3(amine_secondary)
CC(C)Nc1ccccc1,5.656,3,amine_secondary,N-2-Propylaminobenzene (N-Isopropylaniline),3,amine_secondary,3(amine_secondary)
CC(C)Nc1ccccc1,5.481,3,amine_secondary,N-2-Propylaminobenzene (N-Isopropylaniline),3,amine_secondary,3(amine_secondary)
CCCCNc1ccccc1,5.364,4,amine_secondary,N-Butylaminobenzene (N-Butylaniline),4,amine_secondary,4(amine_secondary)
CCCCNc1ccccc1,5.171,4,amine_secondary,N-Butylaminobenzene (N-Butylaniline),4,amine_secondary,4(amine_secondary)
CCCCNc1ccccc1,4.995,4,amine_secondary,N-Butylaminobenzene (N-Butylaniline),4,amine_secondary,4(amine_secondary)
CCC(C)Nc1ccccc1,5.688,4,amine_secondary,N-(1-Methylpropyl)aminobenzene (N-s-Butylaniline),4,amine_secondary,4(amine_secondary)
CCC(C)Nc1ccccc1,5.493,4,amine_secondary,N-(1-Methylpropyl)aminobenzene (N-s-Butylaniline),4,amine_secondary,4(amine_secondary)
CCC(C)Nc1ccccc1,5.305,4,amine_secondary,N-(1-Methylpropyl)aminobenzene (N-s-Butylaniline),4,amine_secondary,4(amine_secondary)
CC(C)CNc1ccccc1,5.08,4,amine_secondary,N-(2-Methylpropyl)aminobenzene (N-Isobutylaniline),4,amine_secondary,4(amine_secondary)
CC(C)CNc1ccccc1,4.904,4,amine_secondary,N-(2-Methylpropyl)aminobenzene (N-Isobutylaniline),4,amine_secondary,4(amine_secondary)
CC(C)CNc1ccccc1,4.737,4,amine_secondary,N-(2-Methylpropyl)aminobenzene (N-Isobutylaniline),4,amine_secondary,4(amine_secondary)
CC(C)(C)Nc1ccccc1,7.418,4,amine_secondary,N-(2-Methyl-2-propylethyl)aminobenzene (N-t-Butylaniline),4,amine_secondary,4(amine_secondary)
CC(C)(C)Nc1ccccc1,7.132,4,amine_secondary,N-(2-Methyl-2-propylethyl)aminobenzene (N-t-Butylaniline),4,amine_secondary,4(amine_secondary)
CC(C)(C)Nc1ccccc1,6.865,4,amine_secondary,N-(2-Methyl-2-propylethyl)aminobenzene (N-t-Butylaniline),4,amine_secondary,4(amine_secondary)
CCCCCNc1ccccc1,5.362,5,amine_secondary,Pentylaminobenzene (N-Pentylaniline),5,amine_secondary,5(amine_secondary)
CCCCCNc1ccccc1,5.162,5,amine_secondary,Pentylaminobenzene (N-Pentylaniline),5,amine_secondary,5(amine_secondary)
CCCCCNc1ccccc1,4.998,5,amine_secondary,Pentylaminobenzene (N-Pentylaniline),5,amine_secondary,5(amine_secondary)
CN(C)c1ccccc1,5.15,1,tertiary_amine,"N,N-Dimethylaniline",1,tertiary_amine,1(tertiary_amine)
CCN(CC)c1ccc(C)cc1,7.24,2,tertiary_amine,"N,N-Diethyl-4-methylaminobenzene (N,N-Diethyl-4-toluidine)",2,tertiary_amine,2(tertiary_amine)
CN(C)c1ccc(cc1)[S](O)(=O)=O,3.37,1,tertiary_amine,4-(Dimethylamino)benzenesulfonic acid,1,tertiary_amine,1(tertiary_amine)
CN(C)c1ccc(cc1)[S](O)(=O)=O,3.6,1,tertiary_amine,4-(Dimethylamino)benzenesulfonic acid,1,tertiary_amine,1(tertiary_amine)
[Na+].CN(C)c1ccc(cc1)N=Nc2ccc(cc2)[S]([O-])(=O)=O,3.602,7,tertiary_amine,4-[4-(Dimethylamino)phenylazo]benzenesulfonic acid (Methyl Orange),7,tertiary_amine,7(tertiary_amine)
[Na+].CN(C)c1ccc(cc1)N=Nc2ccc(cc2)[S]([O-])(=O)=O,3.438,7,tertiary_amine,4-[4-(Dimethylamino)phenylazo]benzenesulfonic acid (Methyl Orange),7,tertiary_amine,7(tertiary_amine)
[Na+].CN(C)c1ccc(cc1)N=Nc2ccc(cc2)[S]([O-])(=O)=O,3.285,7,tertiary_amine,4-[4-(Dimethylamino)phenylazo]benzenesulfonic acid (Methyl Orange),7,tertiary_amine,7(tertiary_amine)
CN(C)c1ccc(cc1)N=Nc2ccccc2[S](O)(=O)=O,3.528,1,tertiary_amine,2-[4-(Dimethylamino)phenylazo]benzenesulfonic acid,1,tertiary_amine,1(tertiary_amine)
CN(C)c1ccc(cc1)N=Nc2ccccc2[S](O)(=O)=O,3.483,1,tertiary_amine,2-[4-(Dimethylamino)phenylazo]benzenesulfonic acid,1,tertiary_amine,1(tertiary_amine)
CN(C)c1ccc(cc1)N=Nc2ccccc2[S](O)(=O)=O,3.446,1,tertiary_amine,2-[4-(Dimethylamino)phenylazo]benzenesulfonic acid,1,tertiary_amine,1(tertiary_amine)
CCCC[Se]CC(O)=O,3.82,7,carboxylic_acid,(Butylseleno)acetic acid,7,carboxylic_acid,7(carboxylic_acid)
OC(=O)C[Se]CCC=C,3.77,0,carboxylic_acid,(But-3-enylseleno)acetic acid,0,carboxylic_acid,0(carboxylic_acid)
OC(=O)C[Se]CCCC=C,3.8,0,carboxylic_acid,(Pent-4-enylseleno)acetic acid,0,carboxylic_acid,0(carboxylic_acid)
OC(=O)C[Se]c1ccccc1,3.64,0,carboxylic_acid,(Phenylseleno)acetic acid,0,carboxylic_acid,0(carboxylic_acid)
Cc1ccccc1[Se]CC(O)=O,3.65,10,carboxylic_acid,(2-Methylphenylseleno)acetic acid,10,carboxylic_acid,10(carboxylic_acid)
Cc1cccc([Se]CC(O)=O)c1,3.67,9,carboxylic_acid,(3-Methylphenylseleno)acetic acid,9,carboxylic_acid,9(carboxylic_acid)
Cc1ccc([Se]CC(O)=O)cc1,3.72,8,carboxylic_acid,(4-Methylphenylseleno)acetic acid,8,carboxylic_acid,8(carboxylic_acid)
OC(=O)C[Se]c1ccccc1Br,3.47,0,carboxylic_acid,(2-Bromophenylseleno)acetic acid,0,carboxylic_acid,0(carboxylic_acid)
OC(=O)C[Se]c1ccc(Br)cc1,3.59,0,carboxylic_acid,(4-Bromophenylseleno)acetic acid,0,carboxylic_acid,0(carboxylic_acid)
OC(=O)C[Se]c1ccccc1[N+]([O-])=O,3.31,19,n_oxide,(2-Nitrophenylseleno)acetic acid,19,n_oxide,19(n_oxide)
OC(=O)C[Se]c1cccc(c1)[N+]([O-])=O,3.44,21,n_oxide,(3-Nitrophenylseleno)acetic acid,21,n_oxide,21(n_oxide)
OC(=O)C[Se]c1ccc(cc1)[N+]([O-])=O,3.34,21,n_oxide,(4-Nitrophenylseleno)acetic acid,21,n_oxide,21(n_oxide)
COc1ccccc1[Se]CC(O)=O,3.76,11,carboxylic_acid,(2-Methoxyphenylseleno)acetic acid,11,carboxylic_acid,11(carboxylic_acid)
COc1cccc([Se]CC(O)=O)c1,3.62,10,carboxylic_acid,(3-Methoxyphenylseleno)acetic acid,10,carboxylic_acid,10(carboxylic_acid)
COc1ccc([Se]CC(O)=O)cc1,3.75,9,carboxylic_acid,(4-Methoxyphenylseleno)acetic acid,9,carboxylic_acid,9(carboxylic_acid)
CCOc1ccccc1[Se]CC(O)=O,3.79,12,carboxylic_acid,(2-Ethoxyphenylseleno)acetic acid,12,carboxylic_acid,12(carboxylic_acid)
CCOc1ccc([Se]CC(O)=O)cc1,3.75,10,carboxylic_acid,(4-Ethoxyphenylseleno)acetic acid,10,carboxylic_acid,10(carboxylic_acid)