SMILES,pKa,Dissociable_Atoms,Functional_Group,Name,Equilibrium,Ionic,Temperature,Dissociable_Atoms_Ordered,Functional_Group_Ordered,Dissociation_Order,Dissociating_Group,Functional_Group_pKa_Ranges
N[C@@H](CC(N)=O)C(O)=O,9.3,7:0,carboxylic_acid:amine_primary,L-2-Aminobutanedioic acid 4-amide (Asparagine),[HL]/[L][H],3.0,25.0,7:0,carboxylic_acid:amine_primary,7(carboxylic_acid) > 0(amine_primary),amine_primary,carboxylic_acid(1.5~5.0); amine_primary(9.0~11.0)
N[C@@H](CC(N)=O)C(O)=O,2.16,7:0,carboxylic_acid:amine_primary,L-2-Aminobutanedioic acid 4-amide (Asparagine),[H₂L]/[HL][H],0.1,25.0,7:0,carboxylic_acid:amine_primary,7(carboxylic_acid) > 0(amine_primary),carboxylic_acid,carboxylic_acid(1.5~5.0); amine_primary(9.0~11.0)
N[C@@H](CC(N)=O)C(O)=O,2.15,7:0,carboxylic_acid:amine_primary,L-2-Aminobutanedioic acid 4-amide (Asparagine),[H₂L]/[HL][H],0.15,37.0,7:0,carboxylic_acid:amine_primary,7(carboxylic_acid) > 0(amine_primary),carboxylic_acid,carboxylic_acid(1.5~5.0); amine_primary(9.0~11.0)
N[C@@H](CC(N)=O)C(O)=O,2.11,7:0,carboxylic_acid:amine_primary,L-2-Aminobutanedioic acid 4-amide (Asparagine),[H₂L]/[HL][H],0.5,25.0,7:0,carboxylic_acid:amine_primary,7(carboxylic_acid) > 0(amine_primary),carboxylic_acid,carboxylic_acid(1.5~5.0); amine_primary(9.0~11.0)
N[C@@H](CC(N)=O)C(O)=O,2.15,7:0,carboxylic_acid:amine_primary,L-2-Aminobutanedioic acid 4-amide (Asparagine),[H₂L]/[HL][H],1.0,25.0,7:0,carboxylic_acid:amine_primary,7(carboxylic_acid) > 0(amine_primary),carboxylic_acid,carboxylic_acid(1.5~5.0); amine_primary(9.0~11.0)
N[C@@H](CC(N)=O)C(O)=O,2.59,7:0,carboxylic_acid:amine_primary,L-2-Aminobutanedioic acid 4-amide (Asparagine),[H₂L]/[HL][H],3.0,25.0,7:0,carboxylic_acid:amine_primary,7(carboxylic_acid) > 0(amine_primary),carboxylic_acid,carboxylic_acid(1.5~5.0); amine_primary(9.0~11.0)
N[C@@H](CCC(N)=O)C(O)=O,9.0,8:0,carboxylic_acid:amine_primary,L-2-Aminopentanedioic acid 5-amide (Glutamine),[HL]/[L][H],0.1,25.0,8:0,carboxylic_acid:amine_primary,8(carboxylic_acid) > 0(amine_primary),amine_primary,carboxylic_acid(1.5~5.0); amine_primary(9.0~11.0)
N[C@@H](CCC(N)=O)C(O)=O,8.7,8:0,carboxylic_acid:amine_primary,L-2-Aminopentanedioic acid 5-amide (Glutamine),[HL]/[L][H],0.15,37.0,8:0,carboxylic_acid:amine_primary,8(carboxylic_acid) > 0(amine_primary),amine_primary,carboxylic_acid(1.5~5.0); amine_primary(9.0~11.0)
N[C@@H](CCC(N)=O)C(O)=O,8.94,8:0,carboxylic_acid:amine_primary,L-2-Aminopentanedioic acid 5-amide (Glutamine),[HL]/[L][H],0.5,25.0,8:0,carboxylic_acid:amine_primary,8(carboxylic_acid) > 0(amine_primary),amine_primary,carboxylic_acid(1.5~5.0); amine_primary(9.0~11.0)
N[C@@H](CCC(N)=O)C(O)=O,9.64,8:0,carboxylic_acid:amine_primary,L-2-Aminopentanedioic acid 5-amide (Glutamine),[HL]/[L][H],3.0,25.0,8:0,carboxylic_acid:amine_primary,8(carboxylic_acid) > 0(amine_primary),amine_primary,carboxylic_acid(1.5~5.0); amine_primary(9.0~11.0)
N[C@@H](CCC(N)=O)C(O)=O,2.19,8:0,carboxylic_acid:amine_primary,L-2-Aminopentanedioic acid 5-amide (Glutamine),[H₂L]/[HL][H],0.1,25.0,8:0,carboxylic_acid:amine_primary,8(carboxylic_acid) > 0(amine_primary),carboxylic_acid,carboxylic_acid(1.5~5.0); amine_primary(9.0~11.0)
N[C@@H](CCC(N)=O)C(O)=O,2.19,8:0,carboxylic_acid:amine_primary,L-2-Aminopentanedioic acid 5-amide (Glutamine),[H₂L]/[HL][H],0.15,37.0,8:0,carboxylic_acid:amine_primary,8(carboxylic_acid) > 0(amine_primary),carboxylic_acid,carboxylic_acid(1.5~5.0); amine_primary(9.0~11.0)
N[C@@H](CCC(N)=O)C(O)=O,2.14,8:0,carboxylic_acid:amine_primary,L-2-Aminopentanedioic acid 5-amide (Glutamine),[H₂L]/[HL][H],0.5,25.0,8:0,carboxylic_acid:amine_primary,8(carboxylic_acid) > 0(amine_primary),carboxylic_acid,carboxylic_acid(1.5~5.0); amine_primary(9.0~11.0)
N[C@@H](CCC(N)=O)C(O)=O,2.72,8:0,carboxylic_acid:amine_primary,L-2-Aminopentanedioic acid 5-amide (Glutamine),[H₂L]/[HL][H],3.0,25.0,8:0,carboxylic_acid:amine_primary,8(carboxylic_acid) > 0(amine_primary),carboxylic_acid,carboxylic_acid(1.5~5.0); amine_primary(9.0~11.0)
OC(=O)CCc1c[nH]cn1,7.44,0:7,carboxylic_acid:amine_secondary,3-(4-Imidazolyl)propanoic acid,[HL]/[L][H],0.1,25.0,0:7,carboxylic_acid:amine_secondary,0(carboxylic_acid) > 7(amine_secondary),amine_secondary,carboxylic_acid(1.5~5.0); amine_secondary(9.5~11.5)
OC(=O)CCc1c[nH]cn1,3.83,0:7,carboxylic_acid:amine_secondary,3-(4-Imidazolyl)propanoic acid,[H₂L]/[HL][H],0.1,25.0,0:7,carboxylic_acid:amine_secondary,0(carboxylic_acid) > 7(amine_secondary),carboxylic_acid,carboxylic_acid(1.5~5.0); amine_secondary(9.5~11.5)
OC(Cc1c[nH]cn1)C(O)=O,7.31,9:5,carboxylic_acid:amine_secondary,2-Hydroxy-3-(4-imidazolyl)propanoic acid,[HL]/[L][H],0.1,25.0,9:5,carboxylic_acid:amine_secondary,9(carboxylic_acid) > 5(amine_secondary),amine_secondary,carboxylic_acid(1.5~5.0); amine_secondary(9.5~11.5)
OC(Cc1c[nH]cn1)C(O)=O,3.0,9:5,carboxylic_acid:amine_secondary,2-Hydroxy-3-(4-imidazolyl)propanoic acid,[H₂L]/[HL][H],0.1,25.0,9:5,carboxylic_acid:amine_secondary,9(carboxylic_acid) > 5(amine_secondary),carboxylic_acid,carboxylic_acid(1.5~5.0); amine_secondary(9.5~11.5)
CC(=O)N[C@@H](Cc1c[nH]cn1)C(O)=O,7.02,12:3,carboxylic_acid:amine_secondary,N-Acetyl-L-histidine,[HL]/[L][H],0.1,25.0,12:3,carboxylic_acid:amine_secondary,12(carboxylic_acid) > 3(amine_secondary),amine_secondary,carboxylic_acid(1.5~5.0); amine_secondary(9.5~11.5)
CC(=O)N[C@@H](Cc1c[nH]cn1)C(O)=O,2.84,12:3,carboxylic_acid:amine_secondary,N-Acetyl-L-histidine,[H₂L]/[HL][H],0.1,25.0,12:3,carboxylic_acid:amine_secondary,12(carboxylic_acid) > 3(amine_secondary),carboxylic_acid,carboxylic_acid(1.5~5.0); amine_secondary(9.5~11.5)
CC(=O)NCC(=O)N[C@@H](Cc1c[nH]cn1)C(O)=O,6.99,16:3,carboxylic_acid:amine_secondary,N-Acetylglycyl-L-histidine,[HL]/[L][H],0.1,25.0,16:3,carboxylic_acid:amine_secondary,16(carboxylic_acid) > 3(amine_secondary),amine_secondary,carboxylic_acid(1.5~5.0); amine_secondary(9.5~11.5)
CC(=O)NCC(=O)N[C@@H](Cc1c[nH]cn1)C(O)=O,2.87,16:3,carboxylic_acid:amine_secondary,N-Acetylglycyl-L-histidine,[H₂L]/[HL][H],0.1,25.0,16:3,carboxylic_acid:amine_secondary,16(carboxylic_acid) > 3(amine_secondary),carboxylic_acid,carboxylic_acid(1.5~5.0); amine_secondary(9.5~11.5)
CC(=O)NCC(=O)NCC(=O)N[C@@H](Cc1c[nH]cn1)C(O)=O,7.06,20:3,carboxylic_acid:amine_secondary,N-Acetylglycylglycyl-L-histidine,[HL]/[L][H],0.1,25.0,20:3,carboxylic_acid:amine_secondary,20(carboxylic_acid) > 3(amine_secondary),amine_secondary,carboxylic_acid(1.5~5.0); amine_secondary(9.5~11.5)
CC(=O)NCC(=O)NCC(=O)N[C@@H](Cc1c[nH]cn1)C(O)=O,2.96,20:3,carboxylic_acid:amine_secondary,N-Acetylglycylglycyl-L-histidine,[H₂L]/[HL][H],0.1,25.0,20:3,carboxylic_acid:amine_secondary,20(carboxylic_acid) > 3(amine_secondary),carboxylic_acid,carboxylic_acid(1.5~5.0); amine_secondary(9.5~11.5)
CC(=O)NCC(=O)N[C@@H](Cc1c[nH]cn1)C(=O)NCC(O)=O,6.74,20:3,carboxylic_acid:amine_secondary,N-Acetylglycyl-L-histidylglycine,[HL]/[L][H],0.1,25.0,20:3,carboxylic_acid:amine_secondary,20(carboxylic_acid) > 3(amine_secondary),carboxylic_acid,carboxylic_acid(1.5~5.0); amine_secondary(9.5~11.5)
CC(=O)NCC(=O)N[C@@H](Cc1c[nH]cn1)C(=O)NCC(O)=O,3.13,20:3,carboxylic_acid:amine_secondary,N-Acetylglycyl-L-histidylglycine,[H₂L]/[HL][H],0.1,25.0,20:3,carboxylic_acid:amine_secondary,20(carboxylic_acid) > 3(amine_secondary),carboxylic_acid,carboxylic_acid(1.5~5.0); amine_secondary(9.5~11.5)
CC(=O)NCC(=O)N(CC(O)=O)C(=O)[C@@H](N)Cc1cncn1Cc2ccccc2,6.25,41:43,pyridine_nitrogen:pyridine_nitrogen,N-Acetylglycyl(N(3)-benzyl-L-histidyl)glycine,[HL]/[L][H],0.1,25.0,41:43,pyridine_nitrogen:pyridine_nitrogen,41(pyridine_nitrogen) > 43(pyridine_nitrogen),Unknown,pyridine_nitrogen(Unknown); pyridine_nitrogen(Unknown)
CC(=O)NCC(=O)N(CC(O)=O)C(=O)[C@@H](N)Cc1cncn1Cc2ccccc2,3.18,41:43,pyridine_nitrogen:pyridine_nitrogen,N-Acetylglycyl(N(3)-benzyl-L-histidyl)glycine,[H₂L]/[HL][H],0.1,25.0,41:43,pyridine_nitrogen:pyridine_nitrogen,41(pyridine_nitrogen) > 43(pyridine_nitrogen),Unknown,pyridine_nitrogen(Unknown); pyridine_nitrogen(Unknown)
CC(=O)NCC(=O)NCC(=O)NCC(=O)N[C@@H](Cc1c[nH]cn1)C(O)=O,7.09,24:3,carboxylic_acid:amine_secondary,N-Acetylglycylglycylglycyl-L-histidine,[HL]/[L][H],0.1,25.0,24:3,carboxylic_acid:amine_secondary,24(carboxylic_acid) > 3(amine_secondary),amine_secondary,carboxylic_acid(1.5~5.0); amine_secondary(9.5~11.5)
CC(=O)NCC(=O)NCC(=O)NCC(=O)N[C@@H](Cc1c[nH]cn1)C(O)=O,3.04,24:3,carboxylic_acid:amine_secondary,N-Acetylglycylglycylglycyl-L-histidine,[H₂L]/[HL][H],0.1,25.0,24:3,carboxylic_acid:amine_secondary,24(carboxylic_acid) > 3(amine_secondary),carboxylic_acid,carboxylic_acid(1.5~5.0); amine_secondary(9.5~11.5)
CC(=O)NCC(=O)NCC(=O)N[C@@H](Cc1c[nH]cn1)C(=O)NCC(O)=O,6.78,24:3,carboxylic_acid:amine_secondary,N-Acetylglycylglycyl-L-histidylglycine,[HL]/[L][H],0.1,25.0,24:3,carboxylic_acid:amine_secondary,24(carboxylic_acid) > 3(amine_secondary),carboxylic_acid,carboxylic_acid(1.5~5.0); amine_secondary(9.5~11.5)
CC(=O)NCC(=O)NCC(=O)N[C@@H](Cc1c[nH]cn1)C(=O)NCC(O)=O,3.17,24:3,carboxylic_acid:amine_secondary,N-Acetylglycylglycyl-L-histidylglycine,[H₂L]/[HL][H],0.1,25.0,24:3,carboxylic_acid:amine_secondary,24(carboxylic_acid) > 3(amine_secondary),carboxylic_acid,carboxylic_acid(1.5~5.0); amine_secondary(9.5~11.5)
OC(=O)CNCCNCC(O)=O,9.61,0:4:7:10,carboxylic_acid:amine_secondary:amine_secondary:carboxylic_acid,Ethylenediiminodiacetic acid (EDDA),[HL]/[L][H],0.1,25.0,0:10:4:7,carboxylic_acid:carboxylic_acid:amine_secondary:amine_secondary,0(carboxylic_acid) > 10(carboxylic_acid) > 4(amine_secondary) > 7(amine_secondary),amine_secondary,carboxylic_acid(1.5~5.0); amine_secondary(9.5~11.5); amine_secondary(9.5~11.5); carboxylic_acid(1.5~5.0)
OC(=O)CNCCNCC(O)=O,9.36,0:4:7:10,carboxylic_acid:amine_secondary:amine_secondary:carboxylic_acid,Ethylenediiminodiacetic acid (EDDA),[HL]/[L][H],0.15,37.0,0:10:4:7,carboxylic_acid:carboxylic_acid:amine_secondary:amine_secondary,0(carboxylic_acid) > 10(carboxylic_acid) > 4(amine_secondary) > 7(amine_secondary),amine_secondary,carboxylic_acid(1.5~5.0); amine_secondary(9.5~11.5); amine_secondary(9.5~11.5); carboxylic_acid(1.5~5.0)
OC(=O)CNCCNCC(O)=O,9.64,0:4:7:10,carboxylic_acid:amine_secondary:amine_secondary:carboxylic_acid,Ethylenediiminodiacetic acid (EDDA),[HL]/[L][H],1.0,25.0,0:10:4:7,carboxylic_acid:carboxylic_acid:amine_secondary:amine_secondary,0(carboxylic_acid) > 10(carboxylic_acid) > 4(amine_secondary) > 7(amine_secondary),amine_secondary,carboxylic_acid(1.5~5.0); amine_secondary(9.5~11.5); amine_secondary(9.5~11.5); carboxylic_acid(1.5~5.0)
OC(=O)CNCCNCC(O)=O,10.06,0:4:7:10,carboxylic_acid:amine_secondary:amine_secondary:carboxylic_acid,Ethylenediiminodiacetic acid (EDDA),[HL]/[L][H],3.0,25.0,0:10:4:7,carboxylic_acid:carboxylic_acid:amine_secondary:amine_secondary,0(carboxylic_acid) > 10(carboxylic_acid) > 4(amine_secondary) > 7(amine_secondary),amine_secondary,carboxylic_acid(1.5~5.0); amine_secondary(9.5~11.5); amine_secondary(9.5~11.5); carboxylic_acid(1.5~5.0)
OC(=O)CNCCNCC(O)=O,6.55,0:4:7:10,carboxylic_acid:amine_secondary:amine_secondary:carboxylic_acid,Ethylenediiminodiacetic acid (EDDA),[H₂L]/[HL][H],0.1,25.0,0:10:4:7,carboxylic_acid:carboxylic_acid:amine_secondary:amine_secondary,0(carboxylic_acid) > 10(carboxylic_acid) > 4(amine_secondary) > 7(amine_secondary),carboxylic_acid,carboxylic_acid(1.5~5.0); amine_secondary(9.5~11.5); amine_secondary(9.5~11.5); carboxylic_acid(1.5~5.0)
OC(=O)CNCCNCC(O)=O,6.36,0:4:7:10,carboxylic_acid:amine_secondary:amine_secondary:carboxylic_acid,Ethylenediiminodiacetic acid (EDDA),[H₂L]/[HL][H],0.15,37.0,0:10:4:7,carboxylic_acid:carboxylic_acid:amine_secondary:amine_secondary,0(carboxylic_acid) > 10(carboxylic_acid) > 4(amine_secondary) > 7(amine_secondary),carboxylic_acid,carboxylic_acid(1.5~5.0); amine_secondary(9.5~11.5); amine_secondary(9.5~11.5); carboxylic_acid(1.5~5.0)
OC(=O)CNCCNCC(O)=O,6.7,0:4:7:10,carboxylic_acid:amine_secondary:amine_secondary:carboxylic_acid,Ethylenediiminodiacetic acid (EDDA),[H₂L]/[HL][H],1.0,25.0,0:10:4:7,carboxylic_acid:carboxylic_acid:amine_secondary:amine_secondary,0(carboxylic_acid) > 10(carboxylic_acid) > 4(amine_secondary) > 7(amine_secondary),carboxylic_acid,carboxylic_acid(1.5~5.0); amine_secondary(9.5~11.5); amine_secondary(9.5~11.5); carboxylic_acid(1.5~5.0)
OC(=O)CNCCNCC(O)=O,7.18,0:4:7:10,carboxylic_acid:amine_secondary:amine_secondary:carboxylic_acid,Ethylenediiminodiacetic acid (EDDA),[H₂L]/[HL][H],3.0,25.0,0:10:4:7,carboxylic_acid:carboxylic_acid:amine_secondary:amine_secondary,0(carboxylic_acid) > 10(carboxylic_acid) > 4(amine_secondary) > 7(amine_secondary),amine_secondary,carboxylic_acid(1.5~5.0); amine_secondary(9.5~11.5); amine_secondary(9.5~11.5); carboxylic_acid(1.5~5.0)
OC(=O)CNCCNCC(O)=O,2.12,0:4:7:10,carboxylic_acid:amine_secondary:amine_secondary:carboxylic_acid,Ethylenediiminodiacetic acid (EDDA),[H₃L]/[H₂L][H],0.1,25.0,0:10:4:7,carboxylic_acid:carboxylic_acid:amine_secondary:amine_secondary,0(carboxylic_acid) > 10(carboxylic_acid) > 4(amine_secondary) > 7(amine_secondary),carboxylic_acid,carboxylic_acid(1.5~5.0); amine_secondary(9.5~11.5); amine_secondary(9.5~11.5); carboxylic_acid(1.5~5.0)
OC(=O)CNCCNCC(O)=O,2.18,0:4:7:10,carboxylic_acid:amine_secondary:amine_secondary:carboxylic_acid,Ethylenediiminodiacetic acid (EDDA),[H₃L]/[H₂L][H],0.15,37.0,0:10:4:7,carboxylic_acid:carboxylic_acid:amine_secondary:amine_secondary,0(carboxylic_acid) > 10(carboxylic_acid) > 4(amine_secondary) > 7(amine_secondary),carboxylic_acid,carboxylic_acid(1.5~5.0); amine_secondary(9.5~11.5); amine_secondary(9.5~11.5); carboxylic_acid(1.5~5.0)
OC(=O)CNCCNCC(O)=O,2.35,0:4:7:10,carboxylic_acid:amine_secondary:amine_secondary:carboxylic_acid,Ethylenediiminodiacetic acid (EDDA),[H₃L]/[H₂L][H],1.0,25.0,0:10:4:7,carboxylic_acid:carboxylic_acid:amine_secondary:amine_secondary,0(carboxylic_acid) > 10(carboxylic_acid) > 4(amine_secondary) > 7(amine_secondary),carboxylic_acid,carboxylic_acid(1.5~5.0); amine_secondary(9.5~11.5); amine_secondary(9.5~11.5); carboxylic_acid(1.5~5.0)
OC(=O)CNCCNCC(O)=O,2.98,0:4:7:10,carboxylic_acid:amine_secondary:amine_secondary:carboxylic_acid,Ethylenediiminodiacetic acid (EDDA),[H₃L]/[H₂L][H],3.0,25.0,0:10:4:7,carboxylic_acid:carboxylic_acid:amine_secondary:amine_secondary,0(carboxylic_acid) > 10(carboxylic_acid) > 4(amine_secondary) > 7(amine_secondary),carboxylic_acid,carboxylic_acid(1.5~5.0); amine_secondary(9.5~11.5); amine_secondary(9.5~11.5); carboxylic_acid(1.5~5.0)
OC(=O)CNCCNCC(O)=O,1.3,0:4:7:10,carboxylic_acid:amine_secondary:amine_secondary:carboxylic_acid,Ethylenediiminodiacetic acid (EDDA),[H₄L]/[H₃L][H],0.1,25.0,0:10:4:7,carboxylic_acid:carboxylic_acid:amine_secondary:amine_secondary,0(carboxylic_acid) > 10(carboxylic_acid) > 4(amine_secondary) > 7(amine_secondary),carboxylic_acid,carboxylic_acid(1.5~5.0); amine_secondary(9.5~11.5); amine_secondary(9.5~11.5); carboxylic_acid(1.5~5.0)
OC(=O)CNCCNCC(O)=O,1.2,0:4:7:10,carboxylic_acid:amine_secondary:amine_secondary:carboxylic_acid,Ethylenediiminodiacetic acid (EDDA),[H₄L]/[H₃L][H],0.15,37.0,0:10:4:7,carboxylic_acid:carboxylic_acid:amine_secondary:amine_secondary,0(carboxylic_acid) > 10(carboxylic_acid) > 4(amine_secondary) > 7(amine_secondary),carboxylic_acid,carboxylic_acid(1.5~5.0); amine_secondary(9.5~11.5); amine_secondary(9.5~11.5); carboxylic_acid(1.5~5.0)
OC(=O)CNCCNCC(O)=O,1.75,0:4:7:10,carboxylic_acid:amine_secondary:amine_secondary:carboxylic_acid,Ethylenediiminodiacetic acid (EDDA),[H₄L]/[H₃L][H],1.0,25.0,0:10:4:7,carboxylic_acid:carboxylic_acid:amine_secondary:amine_secondary,0(carboxylic_acid) > 10(carboxylic_acid) > 4(amine_secondary) > 7(amine_secondary),carboxylic_acid,carboxylic_acid(1.5~5.0); amine_secondary(9.5~11.5); amine_secondary(9.5~11.5); carboxylic_acid(1.5~5.0)
OC(=O)CNCCNCC(O)=O,1.5,0:4:7:10,carboxylic_acid:amine_secondary:amine_secondary:carboxylic_acid,Ethylenediiminodiacetic acid (EDDA),[H₄L]/[H₃L][H],3.0,25.0,0:10:4:7,carboxylic_acid:carboxylic_acid:amine_secondary:amine_secondary,0(carboxylic_acid) > 10(carboxylic_acid) > 4(amine_secondary) > 7(amine_secondary),carboxylic_acid,carboxylic_acid(1.5~5.0); amine_secondary(9.5~11.5); amine_secondary(9.5~11.5); carboxylic_acid(1.5~5.0)
OC(=O)CN=C[P](O)(=O)C=NCC(O)=O,9.0,6:8:7,phosphate:phosphate:phosphate,Bis(carboxymethyliminomethyl)phosphinic acid,[HL]/[L][H],0.1,25.0,6:8:7,phosphate:phosphate:phosphate,6(phosphate) > 8(phosphate) > 7(phosphate),phosphate,"phosphate(1.0~3.0, 5.0~7.0, 9.0~12.0); phosphate(1.0~3.0, 5.0~7.0, 9.0~12.0); phosphate(1.0~3.0, 5.0~7.0, 9.0~12.0)"
OC(=O)CN=C[P](O)(=O)C=NCC(O)=O,6.55,6:8:7,phosphate:phosphate:phosphate,Bis(carboxymethyliminomethyl)phosphinic acid,[H₂L]/[HL][H],0.1,25.0,6:8:7,phosphate:phosphate:phosphate,6(phosphate) > 8(phosphate) > 7(phosphate),phosphate,"phosphate(1.0~3.0, 5.0~7.0, 9.0~12.0); phosphate(1.0~3.0, 5.0~7.0, 9.0~12.0); phosphate(1.0~3.0, 5.0~7.0, 9.0~12.0)"
OC(=O)CN=C[P](O)(=O)C=NCC(O)=O,2.1,6:8:7,phosphate:phosphate:phosphate,Bis(carboxymethyliminomethyl)phosphinic acid,[H₃L]/[H₂L][H],0.1,25.0,6:8:7,phosphate:phosphate:phosphate,6(phosphate) > 8(phosphate) > 7(phosphate),phosphate,"phosphate(1.0~3.0, 5.0~7.0, 9.0~12.0); phosphate(1.0~3.0, 5.0~7.0, 9.0~12.0); phosphate(1.0~3.0, 5.0~7.0, 9.0~12.0)"
OC(=O)CC(NCCNC(CC(O)=O)C(O)=O)C(O)=O,10.01,0:12:15:18,carboxylic_acid:carboxylic_acid:carboxylic_acid:carboxylic_acid,Ethylenediiminodibutanedioic acid (EDDS),[HL]/[L][H],0.1,25.0,0:12:15:18,carboxylic_acid:carboxylic_acid:carboxylic_acid:carboxylic_acid,0(carboxylic_acid) > 12(carboxylic_acid) > 15(carboxylic_acid) > 18(carboxylic_acid),carboxylic_acid,carboxylic_acid(1.5~5.0); carboxylic_acid(1.5~5.0); carboxylic_acid(1.5~5.0); carboxylic_acid(1.5~5.0)
OC(=O)CC(NCCNC(CC(O)=O)C(O)=O)C(O)=O,10.13,0:12:15:18,carboxylic_acid:carboxylic_acid:carboxylic_acid:carboxylic_acid,Ethylenediiminodibutanedioic acid (EDDS),[HL]/[L][H],0.1,20.0,0:12:15:18,carboxylic_acid:carboxylic_acid:carboxylic_acid:carboxylic_acid,0(carboxylic_acid) > 12(carboxylic_acid) > 15(carboxylic_acid) > 18(carboxylic_acid),carboxylic_acid,carboxylic_acid(1.5~5.0); carboxylic_acid(1.5~5.0); carboxylic_acid(1.5~5.0); carboxylic_acid(1.5~5.0)
OC(=O)CC(NCCNC(CC(O)=O)C(O)=O)C(O)=O,6.84,0:12:15:18,carboxylic_acid:carboxylic_acid:carboxylic_acid:carboxylic_acid,Ethylenediiminodibutanedioic acid (EDDS),[H₂L]/[HL][H],0.1,25.0,0:12:15:18,carboxylic_acid:carboxylic_acid:carboxylic_acid:carboxylic_acid,0(carboxylic_acid) > 12(carboxylic_acid) > 15(carboxylic_acid) > 18(carboxylic_acid),carboxylic_acid,carboxylic_acid(1.5~5.0); carboxylic_acid(1.5~5.0); carboxylic_acid(1.5~5.0); carboxylic_acid(1.5~5.0)
OC(=O)CC(NCCNC(CC(O)=O)C(O)=O)C(O)=O,6.93,0:12:15:18,carboxylic_acid:carboxylic_acid:carboxylic_acid:carboxylic_acid,Ethylenediiminodibutanedioic acid (EDDS),[H₂L]/[HL][H],0.1,20.0,0:12:15:18,carboxylic_acid:carboxylic_acid:carboxylic_acid:carboxylic_acid,0(carboxylic_acid) > 12(carboxylic_acid) > 15(carboxylic_acid) > 18(carboxylic_acid),carboxylic_acid,carboxylic_acid(1.5~5.0); carboxylic_acid(1.5~5.0); carboxylic_acid(1.5~5.0); carboxylic_acid(1.5~5.0)
OC(=O)CC(NCCNC(CC(O)=O)C(O)=O)C(O)=O,6.72,0:12:15:18,carboxylic_acid:carboxylic_acid:carboxylic_acid:carboxylic_acid,Ethylenediiminodibutanedioic acid (EDDS),[H₂L]/[HL][H],0.5,25.0,0:12:15:18,carboxylic_acid:carboxylic_acid:carboxylic_acid:carboxylic_acid,0(carboxylic_acid) > 12(carboxylic_acid) > 15(carboxylic_acid) > 18(carboxylic_acid),carboxylic_acid,carboxylic_acid(1.5~5.0); carboxylic_acid(1.5~5.0); carboxylic_acid(1.5~5.0); carboxylic_acid(1.5~5.0)
OC(=O)CC(NCCNC(CC(O)=O)C(O)=O)C(O)=O,6.65,0:12:15:18,carboxylic_acid:carboxylic_acid:carboxylic_acid:carboxylic_acid,Ethylenediiminodibutanedioic acid (EDDS),[H₂L]/[HL][H],1.0,25.0,0:12:15:18,carboxylic_acid:carboxylic_acid:carboxylic_acid:carboxylic_acid,0(carboxylic_acid) > 12(carboxylic_acid) > 15(carboxylic_acid) > 18(carboxylic_acid),carboxylic_acid,carboxylic_acid(1.5~5.0); carboxylic_acid(1.5~5.0); carboxylic_acid(1.5~5.0); carboxylic_acid(1.5~5.0)