SMILES,pKa,Dissociable_Atoms,Functional_Group,Name,Equilibrium,Ionic,Temperature,Dissociable_Atoms_Ordered,Functional_Group_Ordered,Dissociation_Order,Dissociating_Group,Functional_Group_pKa_Ranges
NCc1cccc(n1)c2cccc(CN)n2,1.2,9:22,ring_nitrogen:ring_nitrogen,"6,6'-Bis(aminomethyl)-2,2'-bipyridyl",[H₃L]/[H₂L][H],0.1,25.0,9:22,ring_nitrogen:ring_nitrogen,9(ring_nitrogen) > 22(ring_nitrogen),Unknown,ring_nitrogen(Unknown); ring_nitrogen(Unknown)
N(c1ccccn1)c2ccccn2,7.03,0,amine_secondary,Iminodi-2-pyridine (Di-2-pyridylamine),[HL]/[L][H],0.1,25.0,0,amine_secondary,0(amine_secondary),amine_secondary,amine_secondary(9.5~11.5)
N(c1ccccn1)c2ccccn2,7.14,0,amine_secondary,Iminodi-2-pyridine (Di-2-pyridylamine),[HL]/[L][H],0.1,20.0,0,amine_secondary,0(amine_secondary),amine_secondary,amine_secondary(9.5~11.5)
c1cnc2c(c1)ccc3ncccc23,4.92,2:13,pyridine_nitrogen:pyridine_nitrogen,"1,10-Phenanthroline (Dipyridino[a,c]benzene)",[HL]/[L][H],0.1,25.0,2:13,pyridine_nitrogen:pyridine_nitrogen,2(pyridine_nitrogen) > 13(pyridine_nitrogen),Unknown,pyridine_nitrogen(Unknown); pyridine_nitrogen(Unknown)
c1cnc2c(c1)ccc3ncccc23,5.03,2:13,pyridine_nitrogen:pyridine_nitrogen,"1,10-Phenanthroline (Dipyridino[a,c]benzene)",[HL]/[L][H],0.5,25.0,2:13,pyridine_nitrogen:pyridine_nitrogen,2(pyridine_nitrogen) > 13(pyridine_nitrogen),Unknown,pyridine_nitrogen(Unknown); pyridine_nitrogen(Unknown)
c1cnc2c(c1)ccc3ncccc23,5.13,2:13,pyridine_nitrogen:pyridine_nitrogen,"1,10-Phenanthroline (Dipyridino[a,c]benzene)",[HL]/[L][H],1.0,25.0,2:13,pyridine_nitrogen:pyridine_nitrogen,2(pyridine_nitrogen) > 13(pyridine_nitrogen),Unknown,pyridine_nitrogen(Unknown); pyridine_nitrogen(Unknown)
c1cnc2c(c1)ccc3ncccc23,5.82,2:13,pyridine_nitrogen:pyridine_nitrogen,"1,10-Phenanthroline (Dipyridino[a,c]benzene)",[HL]/[L][H],5.0,25.0,2:13,pyridine_nitrogen:pyridine_nitrogen,2(pyridine_nitrogen) > 13(pyridine_nitrogen),Unknown,pyridine_nitrogen(Unknown); pyridine_nitrogen(Unknown)
c1cnc2c(c1)ccc3ncccc23,4.91,2:13,pyridine_nitrogen:pyridine_nitrogen,"1,10-Phenanthroline (Dipyridino[a,c]benzene)",[HL]/[L][H],0.0,25.0,2:13,pyridine_nitrogen:pyridine_nitrogen,2(pyridine_nitrogen) > 13(pyridine_nitrogen),Unknown,pyridine_nitrogen(Unknown); pyridine_nitrogen(Unknown)
c1cnc2c(c1)ccc3ncccc23,1.8,2:13,pyridine_nitrogen:pyridine_nitrogen,"1,10-Phenanthroline (Dipyridino[a,c]benzene)",[H₂L]/[HL][H],0.1,25.0,2:13,pyridine_nitrogen:pyridine_nitrogen,2(pyridine_nitrogen) > 13(pyridine_nitrogen),Unknown,pyridine_nitrogen(Unknown); pyridine_nitrogen(Unknown)
Cc1ccc2ccc3cccnc3c2n1,5.31,19,ring_nitrogen,"2-Methyl-1,10-phenanthroline",[HL]/[L][H],0.1,25.0,19,ring_nitrogen,19(ring_nitrogen),Unknown,ring_nitrogen(Unknown)
Cc1ccc2ccc3cccnc3c2n1,5.3,19,ring_nitrogen,"2-Methyl-1,10-phenanthroline",[HL]/[L][H],0.5,25.0,19,ring_nitrogen,19(ring_nitrogen),Unknown,ring_nitrogen(Unknown)
Cc1cc2cccnc2c3ncccc13,5.27,7,pyridine_nitrogen,"5-Methyl-1,10-phenanthroline",[HL]/[L][H],0.1,25.0,7,pyridine_nitrogen,7(pyridine_nitrogen),Unknown,pyridine_nitrogen(Unknown)
Cc1cc2cccnc2c3ncccc13,5.14,7,pyridine_nitrogen,"5-Methyl-1,10-phenanthroline",[HL]/[L][H],0.0,25.0,7,pyridine_nitrogen,7(pyridine_nitrogen),Unknown,pyridine_nitrogen(Unknown)
Cc1ccc2ccc3ccc(C)nc3c2n1,5.83,22,ring_nitrogen,"2,9-Dimethyl-1,10-phenanthroline",[HL]/[L][H],0.1,25.0,22,ring_nitrogen,22(ring_nitrogen),Unknown,ring_nitrogen(Unknown)
Cc1ccc2ccc3ccc(C)nc3c2n1,5.88,22,ring_nitrogen,"2,9-Dimethyl-1,10-phenanthroline",[HL]/[L][H],0.5,25.0,22,ring_nitrogen,22(ring_nitrogen),Unknown,ring_nitrogen(Unknown)
Cc1ccc2ccc3ccc(C)nc3c2n1,5.77,22,ring_nitrogen,"2,9-Dimethyl-1,10-phenanthroline",[HL]/[L][H],0.0,25.0,22,ring_nitrogen,22(ring_nitrogen),Unknown,ring_nitrogen(Unknown)
Cc1ccnc2c1ccc3c(C)ccnc23,5.95,4,pyridine_nitrogen,"4,7-Dimethyl-1,10-phenanthroline",[HL]/[L][H],0.1,25.0,4,pyridine_nitrogen,4(pyridine_nitrogen),Unknown,pyridine_nitrogen(Unknown)
Cc1c(C)c2cccnc2c3ncccc13,5.6,8,pyridine_nitrogen,"5,6-Dimethyl-1,10-phenanthroline",[HL]/[L][H],0.1,25.0,8,pyridine_nitrogen,8(pyridine_nitrogen),Unknown,pyridine_nitrogen(Unknown)
Cc1c(C)c2cccnc2c3ncccc13,5.45,8,pyridine_nitrogen,"5,6-Dimethyl-1,10-phenanthroline",[HL]/[L][H],0.0,25.0,8,pyridine_nitrogen,8(pyridine_nitrogen),Unknown,pyridine_nitrogen(Unknown)
Cc1cnc2c(c1)c(C)c(C)c3cc(C)cnc23,5.8,2,pyridine_nitrogen,"3,5,6,8-Tetramethyl-1,10-phenanthroline",[HL]/[L][H],0.5,25.0,2,pyridine_nitrogen,2(pyridine_nitrogen),Unknown,pyridine_nitrogen(Unknown)
Brc1cc2cccnc2c3ncccc13,4.09,8,pyridine_nitrogen,"5-Bromo-1,10-phenanthroline",[HL]/[L][H],0.1,25.0,8,pyridine_nitrogen,8(pyridine_nitrogen),Unknown,pyridine_nitrogen(Unknown)
[O-][N+](=O)c1cc2cccnc2c3ncccc13,3.22,12,pyridine_nitrogen,"5-Nitro-1,10-phenanthroline",[HL]/[L][H],0.1,25.0,12,pyridine_nitrogen,12(pyridine_nitrogen),Unknown,pyridine_nitrogen(Unknown)
[O-][N+](=O)c1cc2cccnc2c3ncccc13,3.25,12,pyridine_nitrogen,"5-Nitro-1,10-phenanthroline",[HL]/[L][H],0.5,25.0,12,pyridine_nitrogen,12(pyridine_nitrogen),Unknown,pyridine_nitrogen(Unknown)
[O-][N+](=O)c1cc2cccnc2c3ncccc13,3.25,12,pyridine_nitrogen,"5-Nitro-1,10-phenanthroline",[HL]/[L][H],0.0,25.0,12,pyridine_nitrogen,12(pyridine_nitrogen),Unknown,pyridine_nitrogen(Unknown)
c1cnc2c(c1)ccc3ncccc23,4.0,2:13,pyridine_nitrogen:pyridine_nitrogen,"1,7-Phenanthroline",[HL]/[L][H],0.1,20.0,2:13,pyridine_nitrogen:pyridine_nitrogen,2(pyridine_nitrogen) > 13(pyridine_nitrogen),Unknown,pyridine_nitrogen(Unknown); pyridine_nitrogen(Unknown)
c1cnc2ccc3ncccc3c2c1,4.0,2,pyridine_nitrogen,"4,7-Phenanthroline",[HL]/[L][H],0.1,20.0,2,pyridine_nitrogen,2(pyridine_nitrogen),Unknown,pyridine_nitrogen(Unknown)
c1ccc(nc1)c2nc(nc(n2)c3ccccn3)c4ccccn4,3.53,18:27,ring_nitrogen:heterocyclic_nitrogen,"2,4,6-Tri(2-pyridyl)-1,3,5-triazine",[HL]/[L][H],0.1,25.0,18:27,ring_nitrogen:heterocyclic_nitrogen,18(ring_nitrogen) > 27(heterocyclic_nitrogen),Unknown,ring_nitrogen(Unknown); heterocyclic_nitrogen(Unknown)
c1ccc(nc1)c2nc(nc(n2)c3ccccn3)c4ccccn4,3.4,18:27,ring_nitrogen:heterocyclic_nitrogen,"2,4,6-Tri(2-pyridyl)-1,3,5-triazine",[HL]/[L][H],0.5,22.0,18:27,ring_nitrogen:heterocyclic_nitrogen,18(ring_nitrogen) > 27(heterocyclic_nitrogen),Unknown,ring_nitrogen(Unknown); heterocyclic_nitrogen(Unknown)
c1ccc(nc1)c2nc(nc(n2)c3ccccn3)c4ccccn4,2.73,18:27,ring_nitrogen:heterocyclic_nitrogen,"2,4,6-Tri(2-pyridyl)-1,3,5-triazine",[H₂L]/[HL][H],0.1,25.0,18:27,ring_nitrogen:heterocyclic_nitrogen,18(ring_nitrogen) > 27(heterocyclic_nitrogen),Unknown,ring_nitrogen(Unknown); heterocyclic_nitrogen(Unknown)
c1ccc(nc1)c2nc(nc(n2)c3ccccn3)c4ccccn4,2.2,18:27,ring_nitrogen:heterocyclic_nitrogen,"2,4,6-Tri(2-pyridyl)-1,3,5-triazine",[H₂L]/[HL][H],0.5,23.0,18:27,ring_nitrogen:heterocyclic_nitrogen,18(ring_nitrogen) > 27(heterocyclic_nitrogen),Unknown,ring_nitrogen(Unknown); heterocyclic_nitrogen(Unknown)
C(CN(Cc1ccccn1)Cc2ccccn2)N(Cc3ccccn3)Cc4ccccn4,7.12,9:16:24:31,pyridine_nitrogen:pyridine_nitrogen:pyridine_nitrogen:pyridine_nitrogen,"Ethylenedinitrilotetrakis(methylene-2-pyridine) (N,N,N',N'-Tetra-2-picolylethylenediamine)(TPEN)",[HL]/[L][H],0.1,25.0,9:16:24:31,pyridine_nitrogen:pyridine_nitrogen:pyridine_nitrogen:pyridine_nitrogen,9(pyridine_nitrogen) > 16(pyridine_nitrogen) > 24(pyridine_nitrogen) > 31(pyridine_nitrogen),Unknown,pyridine_nitrogen(Unknown); pyridine_nitrogen(Unknown); pyridine_nitrogen(Unknown); pyridine_nitrogen(Unknown)
C(CN(Cc1ccccn1)Cc2ccccn2)N(Cc3ccccn3)Cc4ccccn4,4.81,9:16:24:31,pyridine_nitrogen:pyridine_nitrogen:pyridine_nitrogen:pyridine_nitrogen,"Ethylenedinitrilotetrakis(methylene-2-pyridine) (N,N,N',N'-Tetra-2-picolylethylenediamine)(TPEN)",[H₂L]/[HL][H],0.1,25.0,9:16:24:31,pyridine_nitrogen:pyridine_nitrogen:pyridine_nitrogen:pyridine_nitrogen,9(pyridine_nitrogen) > 16(pyridine_nitrogen) > 24(pyridine_nitrogen) > 31(pyridine_nitrogen),Unknown,pyridine_nitrogen(Unknown); pyridine_nitrogen(Unknown); pyridine_nitrogen(Unknown); pyridine_nitrogen(Unknown)
C(CN(Cc1ccccn1)Cc2ccccn2)N(Cc3ccccn3)Cc4ccccn4,3.3,9:16:24:31,pyridine_nitrogen:pyridine_nitrogen:pyridine_nitrogen:pyridine_nitrogen,"Ethylenedinitrilotetrakis(methylene-2-pyridine) (N,N,N',N'-Tetra-2-picolylethylenediamine)(TPEN)",[H₃L]/[H₂L][H],0.1,25.0,9:16:24:31,pyridine_nitrogen:pyridine_nitrogen:pyridine_nitrogen:pyridine_nitrogen,9(pyridine_nitrogen) > 16(pyridine_nitrogen) > 24(pyridine_nitrogen) > 31(pyridine_nitrogen),Unknown,pyridine_nitrogen(Unknown); pyridine_nitrogen(Unknown); pyridine_nitrogen(Unknown); pyridine_nitrogen(Unknown)
C(CN(Cc1ccccn1)Cc2ccccn2)N(Cc3ccccn3)Cc4ccccn4,2.88,9:16:24:31,pyridine_nitrogen:pyridine_nitrogen:pyridine_nitrogen:pyridine_nitrogen,"Ethylenedinitrilotetrakis(methylene-2-pyridine) (N,N,N',N'-Tetra-2-picolylethylenediamine)(TPEN)",[H₄L]/[H₃L][H],0.1,25.0,9:16:24:31,pyridine_nitrogen:pyridine_nitrogen:pyridine_nitrogen:pyridine_nitrogen,9(pyridine_nitrogen) > 16(pyridine_nitrogen) > 24(pyridine_nitrogen) > 31(pyridine_nitrogen),Unknown,pyridine_nitrogen(Unknown); pyridine_nitrogen(Unknown); pyridine_nitrogen(Unknown); pyridine_nitrogen(Unknown)
Cc1ccncn1,2.38,7,heterocyclic_nitrogen,"4-Methyl-1,3-diazine (4-Methylpyrimidine)",[HL]/[L][H],0.5,25.0,7,heterocyclic_nitrogen,7(heterocyclic_nitrogen),Unknown,heterocyclic_nitrogen(Unknown)
Nc1ncccn1,3.89,7,heterocyclic_nitrogen,"2-Amino-1,3-diazine (2-Aminopyrimidine)",[HL]/[L][H],0.5,25.0,7,heterocyclic_nitrogen,7(heterocyclic_nitrogen),Unknown,heterocyclic_nitrogen(Unknown)
Cc1ccnc(N)n1,3.89,10,ring_nitrogen,"2-Amino-4-methyl-1,3-diazine",[HL]/[L][H],0.5,25.0,10,ring_nitrogen,10(ring_nitrogen),Unknown,ring_nitrogen(Unknown)
Cc1cc(C)nc(N)n1,5.1,13,ring_nitrogen,"2-Amino-4,6-dimethyl-1,3-diazine",[HL]/[L][H],0.5,25.0,13,ring_nitrogen,13(ring_nitrogen),Unknown,ring_nitrogen(Unknown)
NC1=NC(=O)NC=C1,4.57,5,amine_secondary,"4-Amino-2-oxo-1,3-diazine (Cytosine)",[HL]/[L][H],0.1,25.0,5,amine_secondary,5(amine_secondary),amine_secondary,amine_secondary(9.5~11.5)
NC1=NC(=O)NC=C1,4.43,5,amine_secondary,"4-Amino-2-oxo-1,3-diazine (Cytosine)",[HL]/[L][H],0.15,37.0,5,amine_secondary,5(amine_secondary),amine_secondary,amine_secondary(9.5~11.5)
NC1=NC(=O)NC=C1,4.79,5,amine_secondary,"4-Amino-2-oxo-1,3-diazine (Cytosine)",[HL]/[L][H],0.0,10.0,5,amine_secondary,5(amine_secondary),amine_secondary,amine_secondary(9.5~11.5)
NC1=NC(=O)NC=C1,4.58,5,amine_secondary,"4-Amino-2-oxo-1,3-diazine (Cytosine)",[HL]/[L][H],0.0,25.0,5,amine_secondary,5(amine_secondary),amine_secondary,amine_secondary(9.5~11.5)
NC1=NC(=O)NC=C1,4.42,5,amine_secondary,"4-Amino-2-oxo-1,3-diazine (Cytosine)",[HL]/[L][H],0.0,40.0,5,amine_secondary,5(amine_secondary),amine_secondary,amine_secondary(9.5~11.5)
NC1=NC(=O)N(C=C1)[C@@H]2O[C@H](CO)[C@@H](O)[C@H]2O,4.09,10,tertiary_amine,1-(beta-D-Ribofuranosyl)cytosine (Cytidine),[HL]/[L][H],0.1,25.0,10,tertiary_amine,10(tertiary_amine),Unknown,tertiary_amine(Unknown)
NC1=NC(=O)N(C=C1)[C@@H]2O[C@H](CO)[C@@H](O)[C@H]2O,3.92,10,tertiary_amine,1-(beta-D-Ribofuranosyl)cytosine (Cytidine),[HL]/[L][H],0.15,37.0,10,tertiary_amine,10(tertiary_amine),Unknown,tertiary_amine(Unknown)
NC1=NC(=O)N(C=C1)[C@@H]2O[C@H](CO)[C@@H](O)[C@H]2O,4.12,10,tertiary_amine,1-(beta-D-Ribofuranosyl)cytosine (Cytidine),[HL]/[L][H],0.5,25.0,10,tertiary_amine,10(tertiary_amine),Unknown,tertiary_amine(Unknown)
NC1=NC(=O)N(C=C1)[C@@H]2O[C@H](CO)[C@@H](O)[C@H]2O,4.14,10,tertiary_amine,1-(beta-D-Ribofuranosyl)cytosine (Cytidine),[HL]/[L][H],1.0,25.0,10,tertiary_amine,10(tertiary_amine),Unknown,tertiary_amine(Unknown)
NC1=NC(=O)N(C=C1)[C@@H]2O[C@H](CO)[C@@H](O)[C@H]2O,4.29,10,tertiary_amine,1-(beta-D-Ribofuranosyl)cytosine (Cytidine),[HL]/[L][H],0.0,10.0,10,tertiary_amine,10(tertiary_amine),Unknown,tertiary_amine(Unknown)
NC1=NC(=O)N(C=C1)[C@@H]2O[C@H](CO)[C@@H](O)[C@H]2O,4.08,10,tertiary_amine,1-(beta-D-Ribofuranosyl)cytosine (Cytidine),[HL]/[L][H],0.0,25.0,10,tertiary_amine,10(tertiary_amine),Unknown,tertiary_amine(Unknown)
NC1=NC(=O)N(C=C1)[C@@H]2O[C@H](CO)[C@@H](O)[C@H]2O,3.92,10,tertiary_amine,1-(beta-D-Ribofuranosyl)cytosine (Cytidine),[HL]/[L][H],0.0,40.0,10,tertiary_amine,10(tertiary_amine),Unknown,tertiary_amine(Unknown)
NC1=NC(=O)N(C=C1)C2OC(CO[P](O)(=O)O[P](O)(O)=O)C(O)C2O,6.39,0:22:24,amine_primary:alcohol:alcohol,Cytidine-5'-(trihydrogendiphosphate) (CDP),[HL]/[L][H],0.1,25.0,0:22:24,amine_primary:alcohol:alcohol,0(amine_primary) > 22(alcohol) > 24(alcohol),amine_primary,amine_primary(9.0~11.0); alcohol(15.0~18.0); alcohol(15.0~18.0)
NC1=NC(=O)N(C=C1)C2OC(CO[P](O)(=O)O[P](O)(O)=O)C(O)C2O,6.43,0:22:24,amine_primary:alcohol:alcohol,Cytidine-5'-(trihydrogendiphosphate) (CDP),[HL]/[L][H],0.1,25.0,0:22:24,amine_primary:alcohol:alcohol,0(amine_primary) > 22(alcohol) > 24(alcohol),amine_primary,amine_primary(9.0~11.0); alcohol(15.0~18.0); alcohol(15.0~18.0)
NC1=NC(=O)N(C=C1)C2OC(CO[P](O)(=O)O[P](O)(O)=O)C(O)C2O,6.68,0:22:24,amine_primary:alcohol:alcohol,Cytidine-5'-(trihydrogendiphosphate) (CDP),[HL]/[L][H],0.1,25.0,0:22:24,amine_primary:alcohol:alcohol,0(amine_primary) > 22(alcohol) > 24(alcohol),amine_primary,amine_primary(9.0~11.0); alcohol(15.0~18.0); alcohol(15.0~18.0)
NC1=NC(=O)N(C=C1)C2OC(CO[P](O)(=O)O[P](O)(O)=O)C(O)C2O,6.38,0:22:24,amine_primary:alcohol:alcohol,Cytidine-5'-(trihydrogendiphosphate) (CDP),[HL]/[L][H],0.1,15.0,0:22:24,amine_primary:alcohol:alcohol,0(amine_primary) > 22(alcohol) > 24(alcohol),amine_primary,amine_primary(9.0~11.0); alcohol(15.0~18.0); alcohol(15.0~18.0)
NC1=NC(=O)N(C=C1)C2OC(CO[P](O)(=O)O[P](O)(O)=O)C(O)C2O,7.18,0:22:24,amine_primary:alcohol:alcohol,Cytidine-5'-(trihydrogendiphosphate) (CDP),[HL]/[L][H],0.0,25.0,0:22:24,amine_primary:alcohol:alcohol,0(amine_primary) > 22(alcohol) > 24(alcohol),amine_primary,amine_primary(9.0~11.0); alcohol(15.0~18.0); alcohol(15.0~18.0)
NC1=NC(=O)N(C=C1)C2OC(CO[P](O)(=O)O[P](O)(O)=O)C(O)C2O,4.46,0:22:24,amine_primary:alcohol:alcohol,Cytidine-5'-(trihydrogendiphosphate) (CDP),[H₂L]/[HL][H],0.1,25.0,0:22:24,amine_primary:alcohol:alcohol,0(amine_primary) > 22(alcohol) > 24(alcohol),amine_primary,amine_primary(9.0~11.0); alcohol(15.0~18.0); alcohol(15.0~18.0)
NC1=NC(=O)N(C=C1)C2OC(CO[P](O)(=O)O[P](O)(O)=O)C(O)C2O,4.56,0:22:24,amine_primary:alcohol:alcohol,Cytidine-5'-(trihydrogendiphosphate) (CDP),[H₂L]/[HL][H],0.1,15.0,0:22:24,amine_primary:alcohol:alcohol,0(amine_primary) > 22(alcohol) > 24(alcohol),amine_primary,amine_primary(9.0~11.0); alcohol(15.0~18.0); alcohol(15.0~18.0)
NC1=NC(=O)N(C=C1)C2OC(CO[P](O)(=O)O[P](O)(O)=O)C(O)C2O,1.0,0:22:24,amine_primary:alcohol:alcohol,Cytidine-5'-(trihydrogendiphosphate) (CDP),[H₃L]/[H₂L][H],0.1,25.0,0:22:24,amine_primary:alcohol:alcohol,0(amine_primary) > 22(alcohol) > 24(alcohol),amine_primary,amine_primary(9.0~11.0); alcohol(15.0~18.0); alcohol(15.0~18.0)
NC1=NC(=O)N(C=C1)C2OC(CO[P](O)(=O)O[P](O)(=O)O[P](O)(O)=O)C(O)C2O,6.42,0:26,amine_primary:alcohol,Cytidine-5'-(tetrahydrogentriphosphate) (CTP),[HL]/[L][H],0.1,25.0,0:26,amine_primary:alcohol,0(amine_primary) > 26(alcohol),amine_primary,amine_primary(9.0~11.0); alcohol(15.0~18.0)
NC1=NC(=O)N(C=C1)C2OC(CO[P](O)(=O)O[P](O)(=O)O[P](O)(O)=O)C(O)C2O,6.58,0:26,amine_primary:alcohol,Cytidine-5'-(tetrahydrogentriphosphate) (CTP),[HL]/[L][H],0.1,25.0,0:26,amine_primary:alcohol,0(amine_primary) > 26(alcohol),amine_primary,amine_primary(9.0~11.0); alcohol(15.0~18.0)
NC1=NC(=O)N(C=C1)C2OC(CO[P](O)(=O)O[P](O)(=O)O[P](O)(O)=O)C(O)C2O,6.99,0:26,amine_primary:alcohol,Cytidine-5'-(tetrahydrogentriphosphate) (CTP),[HL]/[L][H],0.1,25.0,0:26,amine_primary:alcohol,0(amine_primary) > 26(alcohol),amine_primary,amine_primary(9.0~11.0); alcohol(15.0~18.0)
NC1=NC(=O)N(C=C1)C2OC(CO[P](O)(=O)O[P](O)(=O)O[P](O)(O)=O)C(O)C2O,7.65,0:26,amine_primary:alcohol,Cytidine-5'-(tetrahydrogentriphosphate) (CTP),[HL]/[L][H],0.0,25.0,0:26,amine_primary:alcohol,0(amine_primary) > 26(alcohol),amine_primary,amine_primary(9.0~11.0); alcohol(15.0~18.0)
NC1=NC(=O)N(C=C1)C2OC(CO[P](O)(=O)O[P](O)(=O)O[P](O)(O)=O)C(O)C2O,4.47,0:26,amine_primary:alcohol,Cytidine-5'-(tetrahydrogentriphosphate) (CTP),[H₂L]/[HL][H],0.1,25.0,0:26,amine_primary:alcohol,0(amine_primary) > 26(alcohol),amine_primary,amine_primary(9.0~11.0); alcohol(15.0~18.0)
O=C1NC=CC(=O)N1,9.28,2,amine_secondary,"2,4-Dioxo-1,3-diazine (Uracil)",[HL]/[L][H],0.1,25.0,2,amine_secondary,2(amine_secondary),amine_secondary,amine_secondary(9.5~11.5)
O=C1NC=CC(=O)N1,8.98,2,amine_secondary,"2,4-Dioxo-1,3-diazine (Uracil)",[HL]/[L][H],0.15,37.0,2,amine_secondary,2(amine_secondary),amine_secondary,amine_secondary(9.5~11.5)
O=C1NC=CC(=O)N1,9.74,2,amine_secondary,"2,4-Dioxo-1,3-diazine (Uracil)",[HL]/[L][H],0.0,10.0,2,amine_secondary,2(amine_secondary),amine_secondary,amine_secondary(9.5~11.5)
O=C1NC=CC(=O)N1,9.46,2,amine_secondary,"2,4-Dioxo-1,3-diazine (Uracil)",[HL]/[L][H],0.0,25.0,2,amine_secondary,2(amine_secondary),amine_secondary,amine_secondary(9.5~11.5)
O=C1NC=CC(=O)N1,9.07,2,amine_secondary,"2,4-Dioxo-1,3-diazine (Uracil)",[HL]/[L][H],0.0,40.0,2,amine_secondary,2(amine_secondary),amine_secondary,amine_secondary(9.5~11.5)
FC1=CNC(=O)NC1=O,7.85,3,amine_secondary,5-Fluorouracil (5-FU),[HL]/[L][H],0.1,25.0,3,amine_secondary,3(amine_secondary),amine_secondary,amine_secondary(9.5~11.5)
FC1=CNC(=O)NC1=O,7.86,3,amine_secondary,5-Fluorouracil (5-FU),[HL]/[L][H],1.0,25.0,3,amine_secondary,3(amine_secondary),amine_secondary,amine_secondary(9.5~11.5)
OC1C(O)C(OC1CO[P](O)(=O)O[P](O)(O)=O)N2C=CC(=O)NC2=O,6.38,22:0,amine_secondary:alcohol,Uridine-5'-(trihydrogendiphosphate) (UDP),[HL]/[L][H],0.1,25.0,22:0,amine_secondary:alcohol,22(amine_secondary) > 0(alcohol),amine_secondary,amine_secondary(9.5~11.5); alcohol(15.0~18.0)
OC1C(O)C(OC1CO[P](O)(=O)O[P](O)(O)=O)N2C=CC(=O)NC2=O,6.68,22:0,amine_secondary:alcohol,Uridine-5'-(trihydrogendiphosphate) (UDP),[HL]/[L][H],0.1,25.0,22:0,amine_secondary:alcohol,22(amine_secondary) > 0(alcohol),amine_secondary,amine_secondary(9.5~11.5); alcohol(15.0~18.0)