SMILES,pKa,Dissociable_Atoms,Functional_Group,Name,Equilibrium,Ionic,Temperature,Dissociable_Atoms_Ordered,Functional_Group_Ordered,Dissociation_Order,Dissociating_Group,Functional_Group_pKa_Ranges
C[C@H](N)C(=O)N[C@H](CCCCN)C(=O)N[C@@H](C)C(O)=O,3.19,18:2:11,carboxylic_acid:amine_primary:amine_primary,L-Alanyl-D-lysyl-L-alanine,[H₃L]/[H₂L][H],0.1,25.0,18:2:11,carboxylic_acid:amine_primary:amine_primary,18(carboxylic_acid) > 2(amine_primary) > 11(amine_primary),carboxylic_acid,carboxylic_acid(1.5~5.0); amine_primary(9.0~11.0); amine_primary(9.0~11.0)
C[C@H](N)C(=O)N[C@@H](CCCCN)C(=O)N[C@H](C)C(O)=O,10.38,18:2:11,carboxylic_acid:amine_primary:amine_primary,L-Alanyl-L-lysyl-D-alanine,[HL]/[L][H],0.1,25.0,18:2:11,carboxylic_acid:amine_primary:amine_primary,18(carboxylic_acid) > 2(amine_primary) > 11(amine_primary),amine_primary,carboxylic_acid(1.5~5.0); amine_primary(9.0~11.0); amine_primary(9.0~11.0)
C[C@H](N)C(=O)N[C@@H](CCCCN)C(=O)N[C@H](C)C(O)=O,7.73,18:2:11,carboxylic_acid:amine_primary:amine_primary,L-Alanyl-L-lysyl-D-alanine,[H₂L]/[HL][H],0.1,25.0,18:2:11,carboxylic_acid:amine_primary:amine_primary,18(carboxylic_acid) > 2(amine_primary) > 11(amine_primary),amine_primary,carboxylic_acid(1.5~5.0); amine_primary(9.0~11.0); amine_primary(9.0~11.0)
C[C@H](N)C(=O)N[C@@H](CCCCN)C(=O)N[C@H](C)C(O)=O,3.18,18:2:11,carboxylic_acid:amine_primary:amine_primary,L-Alanyl-L-lysyl-D-alanine,[H₃L]/[H₂L][H],0.1,25.0,18:2:11,carboxylic_acid:amine_primary:amine_primary,18(carboxylic_acid) > 2(amine_primary) > 11(amine_primary),carboxylic_acid,carboxylic_acid(1.5~5.0); amine_primary(9.0~11.0); amine_primary(9.0~11.0)
NCCCC[C@H](NC(=O)[C@@H](N)CCCNC(N)=N)C(=O)N[C@@H](CC(O)=O)C(O)=O,10.49,24:27:0:10,carboxylic_acid:carboxylic_acid:amine_primary:amine_primary,L-Arginyl-L-lysyl-L-aspartic acid,[HL]/[L][H],0.1,25.0,24:27:0:10,carboxylic_acid:carboxylic_acid:amine_primary:amine_primary,24(carboxylic_acid) > 27(carboxylic_acid) > 0(amine_primary) > 10(amine_primary),amine_primary,carboxylic_acid(1.5~5.0); carboxylic_acid(1.5~5.0); amine_primary(9.0~11.0); amine_primary(9.0~11.0)
NCCCC[C@H](NC(=O)[C@@H](N)CCCNC(N)=N)C(=O)N[C@@H](CC(O)=O)C(O)=O,7.44,24:27:0:10,carboxylic_acid:carboxylic_acid:amine_primary:amine_primary,L-Arginyl-L-lysyl-L-aspartic acid,[H₂L]/[HL][H],0.1,25.0,24:27:0:10,carboxylic_acid:carboxylic_acid:amine_primary:amine_primary,24(carboxylic_acid) > 27(carboxylic_acid) > 0(amine_primary) > 10(amine_primary),amine_primary,carboxylic_acid(1.5~5.0); carboxylic_acid(1.5~5.0); amine_primary(9.0~11.0); amine_primary(9.0~11.0)
NCCCC[C@H](NC(=O)[C@@H](N)CCCNC(N)=N)C(=O)N[C@@H](CC(O)=O)C(O)=O,4.2,24:27:0:10,carboxylic_acid:carboxylic_acid:amine_primary:amine_primary,L-Arginyl-L-lysyl-L-aspartic acid,[H₃L]/[H₂L][H],0.1,25.0,24:27:0:10,carboxylic_acid:carboxylic_acid:amine_primary:amine_primary,24(carboxylic_acid) > 27(carboxylic_acid) > 0(amine_primary) > 10(amine_primary),carboxylic_acid,carboxylic_acid(1.5~5.0); carboxylic_acid(1.5~5.0); amine_primary(9.0~11.0); amine_primary(9.0~11.0)
NCCCC[C@H](NC(=O)[C@@H](N)CCCNC(N)=N)C(=O)N[C@@H](CC(O)=O)C(O)=O,2.77,24:27:0:10,carboxylic_acid:carboxylic_acid:amine_primary:amine_primary,L-Arginyl-L-lysyl-L-aspartic acid,[H₄L]/[H₃L][H],0.1,25.0,24:27:0:10,carboxylic_acid:carboxylic_acid:amine_primary:amine_primary,24(carboxylic_acid) > 27(carboxylic_acid) > 0(amine_primary) > 10(amine_primary),carboxylic_acid,carboxylic_acid(1.5~5.0); carboxylic_acid(1.5~5.0); amine_primary(9.0~11.0); amine_primary(9.0~11.0)
NCCCC[C@H](NC(=O)[C@H](N)CCCNC(N)=N)C(=O)N[C@@H](CC(O)=O)C(O)=O,10.29,24:27:0:10,carboxylic_acid:carboxylic_acid:amine_primary:amine_primary,D-Arginyl-L-lysyl-L-aspartic acid,[HL]/[L][H],0.1,25.0,24:27:0:10,carboxylic_acid:carboxylic_acid:amine_primary:amine_primary,24(carboxylic_acid) > 27(carboxylic_acid) > 0(amine_primary) > 10(amine_primary),amine_primary,carboxylic_acid(1.5~5.0); carboxylic_acid(1.5~5.0); amine_primary(9.0~11.0); amine_primary(9.0~11.0)
NCCCC[C@H](NC(=O)[C@H](N)CCCNC(N)=N)C(=O)N[C@@H](CC(O)=O)C(O)=O,7.5,24:27:0:10,carboxylic_acid:carboxylic_acid:amine_primary:amine_primary,D-Arginyl-L-lysyl-L-aspartic acid,[H₂L]/[HL][H],0.1,25.0,24:27:0:10,carboxylic_acid:carboxylic_acid:amine_primary:amine_primary,24(carboxylic_acid) > 27(carboxylic_acid) > 0(amine_primary) > 10(amine_primary),amine_primary,carboxylic_acid(1.5~5.0); carboxylic_acid(1.5~5.0); amine_primary(9.0~11.0); amine_primary(9.0~11.0)
NCCCC[C@H](NC(=O)[C@H](N)CCCNC(N)=N)C(=O)N[C@@H](CC(O)=O)C(O)=O,4.2,24:27:0:10,carboxylic_acid:carboxylic_acid:amine_primary:amine_primary,D-Arginyl-L-lysyl-L-aspartic acid,[H₃L]/[H₂L][H],0.1,25.0,24:27:0:10,carboxylic_acid:carboxylic_acid:amine_primary:amine_primary,24(carboxylic_acid) > 27(carboxylic_acid) > 0(amine_primary) > 10(amine_primary),carboxylic_acid,carboxylic_acid(1.5~5.0); carboxylic_acid(1.5~5.0); amine_primary(9.0~11.0); amine_primary(9.0~11.0)
NCCCC[C@H](NC(=O)[C@H](N)CCCNC(N)=N)C(=O)N[C@@H](CC(O)=O)C(O)=O,2.76,24:27:0:10,carboxylic_acid:carboxylic_acid:amine_primary:amine_primary,D-Arginyl-L-lysyl-L-aspartic acid,[H₄L]/[H₃L][H],0.1,25.0,24:27:0:10,carboxylic_acid:carboxylic_acid:amine_primary:amine_primary,24(carboxylic_acid) > 27(carboxylic_acid) > 0(amine_primary) > 10(amine_primary),carboxylic_acid,carboxylic_acid(1.5~5.0); carboxylic_acid(1.5~5.0); amine_primary(9.0~11.0); amine_primary(9.0~11.0)
NCCCC[C@@H](NC(=O)[C@@H](N)CCCNC(N)=N)C(=O)N[C@@H](CC(O)=O)C(O)=O,10.45,24:27:0:10,carboxylic_acid:carboxylic_acid:amine_primary:amine_primary,L-Arginyl-D-lysyl-L-aspartic acid,[HL]/[L][H],0.1,25.0,24:27:0:10,carboxylic_acid:carboxylic_acid:amine_primary:amine_primary,24(carboxylic_acid) > 27(carboxylic_acid) > 0(amine_primary) > 10(amine_primary),amine_primary,carboxylic_acid(1.5~5.0); carboxylic_acid(1.5~5.0); amine_primary(9.0~11.0); amine_primary(9.0~11.0)
NCCCC[C@@H](NC(=O)[C@@H](N)CCCNC(N)=N)C(=O)N[C@@H](CC(O)=O)C(O)=O,7.39,24:27:0:10,carboxylic_acid:carboxylic_acid:amine_primary:amine_primary,L-Arginyl-D-lysyl-L-aspartic acid,[H₂L]/[HL][H],0.1,25.0,24:27:0:10,carboxylic_acid:carboxylic_acid:amine_primary:amine_primary,24(carboxylic_acid) > 27(carboxylic_acid) > 0(amine_primary) > 10(amine_primary),amine_primary,carboxylic_acid(1.5~5.0); carboxylic_acid(1.5~5.0); amine_primary(9.0~11.0); amine_primary(9.0~11.0)
NCCCC[C@@H](NC(=O)[C@@H](N)CCCNC(N)=N)C(=O)N[C@@H](CC(O)=O)C(O)=O,4.07,24:27:0:10,carboxylic_acid:carboxylic_acid:amine_primary:amine_primary,L-Arginyl-D-lysyl-L-aspartic acid,[H₃L]/[H₂L][H],0.1,25.0,24:27:0:10,carboxylic_acid:carboxylic_acid:amine_primary:amine_primary,24(carboxylic_acid) > 27(carboxylic_acid) > 0(amine_primary) > 10(amine_primary),carboxylic_acid,carboxylic_acid(1.5~5.0); carboxylic_acid(1.5~5.0); amine_primary(9.0~11.0); amine_primary(9.0~11.0)
NCCCC[C@@H](NC(=O)[C@@H](N)CCCNC(N)=N)C(=O)N[C@@H](CC(O)=O)C(O)=O,2.78,24:27:0:10,carboxylic_acid:carboxylic_acid:amine_primary:amine_primary,L-Arginyl-D-lysyl-L-aspartic acid,[H₄L]/[H₃L][H],0.1,25.0,24:27:0:10,carboxylic_acid:carboxylic_acid:amine_primary:amine_primary,24(carboxylic_acid) > 27(carboxylic_acid) > 0(amine_primary) > 10(amine_primary),carboxylic_acid,carboxylic_acid(1.5~5.0); carboxylic_acid(1.5~5.0); amine_primary(9.0~11.0); amine_primary(9.0~11.0)
NCCCC[C@H](NC(=O)[C@@H](N)CCCNC(N)=N)C(=O)N[C@H](CC(O)=O)C(O)=O,10.55,24:27:0:10,carboxylic_acid:carboxylic_acid:amine_primary:amine_primary,L-Arginyl-L-lysyl-D-aspartic acid,[HL]/[L][H],0.1,25.0,24:27:0:10,carboxylic_acid:carboxylic_acid:amine_primary:amine_primary,24(carboxylic_acid) > 27(carboxylic_acid) > 0(amine_primary) > 10(amine_primary),amine_primary,carboxylic_acid(1.5~5.0); carboxylic_acid(1.5~5.0); amine_primary(9.0~11.0); amine_primary(9.0~11.0)
NCCCC[C@H](NC(=O)[C@@H](N)CCCNC(N)=N)C(=O)N[C@H](CC(O)=O)C(O)=O,7.42,24:27:0:10,carboxylic_acid:carboxylic_acid:amine_primary:amine_primary,L-Arginyl-L-lysyl-D-aspartic acid,[H₂L]/[HL][H],0.1,25.0,24:27:0:10,carboxylic_acid:carboxylic_acid:amine_primary:amine_primary,24(carboxylic_acid) > 27(carboxylic_acid) > 0(amine_primary) > 10(amine_primary),amine_primary,carboxylic_acid(1.5~5.0); carboxylic_acid(1.5~5.0); amine_primary(9.0~11.0); amine_primary(9.0~11.0)
NCCCC[C@H](NC(=O)[C@@H](N)CCCNC(N)=N)C(=O)N[C@H](CC(O)=O)C(O)=O,4.12,24:27:0:10,carboxylic_acid:carboxylic_acid:amine_primary:amine_primary,L-Arginyl-L-lysyl-D-aspartic acid,[H₃L]/[H₂L][H],0.1,25.0,24:27:0:10,carboxylic_acid:carboxylic_acid:amine_primary:amine_primary,24(carboxylic_acid) > 27(carboxylic_acid) > 0(amine_primary) > 10(amine_primary),carboxylic_acid,carboxylic_acid(1.5~5.0); carboxylic_acid(1.5~5.0); amine_primary(9.0~11.0); amine_primary(9.0~11.0)
NCCCC[C@H](NC(=O)[C@@H](N)CCCNC(N)=N)C(=O)N[C@H](CC(O)=O)C(O)=O,2.71,24:27:0:10,carboxylic_acid:carboxylic_acid:amine_primary:amine_primary,L-Arginyl-L-lysyl-D-aspartic acid,[H₄L]/[H₃L][H],0.1,25.0,24:27:0:10,carboxylic_acid:carboxylic_acid:amine_primary:amine_primary,24(carboxylic_acid) > 27(carboxylic_acid) > 0(amine_primary) > 10(amine_primary),carboxylic_acid,carboxylic_acid(1.5~5.0); carboxylic_acid(1.5~5.0); amine_primary(9.0~11.0); amine_primary(9.0~11.0)
NCCCC[C@H](N)C(=O)N[C@@H](CCCCN)C(=O)N[C@@H](CCCCN)C(O)=O,11.21,26:0:6:15:24,carboxylic_acid:amine_primary:amine_primary:amine_primary:amine_primary,L-Lysyl-L-lysyl-L-lysine,[HL]/[L][H],0.1,25.0,26:0:6:15:24,carboxylic_acid:amine_primary:amine_primary:amine_primary:amine_primary,26(carboxylic_acid) > 0(amine_primary) > 6(amine_primary) > 15(amine_primary) > 24(amine_primary),amine_primary,carboxylic_acid(1.5~5.0); amine_primary(9.0~11.0); amine_primary(9.0~11.0); amine_primary(9.0~11.0); amine_primary(9.0~11.0)
NCCCC[C@H](N)C(=O)N[C@@H](CCCCN)C(=O)N[C@@H](CCCCN)C(O)=O,10.43,26:0:6:15:24,carboxylic_acid:amine_primary:amine_primary:amine_primary:amine_primary,L-Lysyl-L-lysyl-L-lysine,[H₂L]/[HL][H],0.1,25.0,26:0:6:15:24,carboxylic_acid:amine_primary:amine_primary:amine_primary:amine_primary,26(carboxylic_acid) > 0(amine_primary) > 6(amine_primary) > 15(amine_primary) > 24(amine_primary),amine_primary,carboxylic_acid(1.5~5.0); amine_primary(9.0~11.0); amine_primary(9.0~11.0); amine_primary(9.0~11.0); amine_primary(9.0~11.0)
NCCCC[C@H](N)C(=O)N[C@@H](CCCCN)C(=O)N[C@@H](CCCCN)C(O)=O,9.69,26:0:6:15:24,carboxylic_acid:amine_primary:amine_primary:amine_primary:amine_primary,L-Lysyl-L-lysyl-L-lysine,[H₃L]/[H₂L][H],0.1,25.0,26:0:6:15:24,carboxylic_acid:amine_primary:amine_primary:amine_primary:amine_primary,26(carboxylic_acid) > 0(amine_primary) > 6(amine_primary) > 15(amine_primary) > 24(amine_primary),amine_primary,carboxylic_acid(1.5~5.0); amine_primary(9.0~11.0); amine_primary(9.0~11.0); amine_primary(9.0~11.0); amine_primary(9.0~11.0)
NCCCC[C@H](N)C(=O)N[C@@H](CCCCN)C(=O)N[C@@H](CCCCN)C(O)=O,7.23,26:0:6:15:24,carboxylic_acid:amine_primary:amine_primary:amine_primary:amine_primary,L-Lysyl-L-lysyl-L-lysine,[H₄L]/[H₃L][H],0.1,25.0,26:0:6:15:24,carboxylic_acid:amine_primary:amine_primary:amine_primary:amine_primary,26(carboxylic_acid) > 0(amine_primary) > 6(amine_primary) > 15(amine_primary) > 24(amine_primary),amine_primary,carboxylic_acid(1.5~5.0); amine_primary(9.0~11.0); amine_primary(9.0~11.0); amine_primary(9.0~11.0); amine_primary(9.0~11.0)
NCCCC[C@H](N)C(=O)N[C@@H](CCCCN)C(=O)N[C@@H](CCCCN)C(O)=O,2.97,26:0:6:15:24,carboxylic_acid:amine_primary:amine_primary:amine_primary:amine_primary,L-Lysyl-L-lysyl-L-lysine,[H₅L]/[H₄L][H],0.1,25.0,26:0:6:15:24,carboxylic_acid:amine_primary:amine_primary:amine_primary:amine_primary,26(carboxylic_acid) > 0(amine_primary) > 6(amine_primary) > 15(amine_primary) > 24(amine_primary),carboxylic_acid,carboxylic_acid(1.5~5.0); amine_primary(9.0~11.0); amine_primary(9.0~11.0); amine_primary(9.0~11.0); amine_primary(9.0~11.0)
NCCCC[C@H](N)C(=O)N[C@H](CCCCN)C(=O)N[C@@H](CCCCN)C(O)=O,11.31,26:0:6:15:24,carboxylic_acid:amine_primary:amine_primary:amine_primary:amine_primary,L-Lysyl-D-lysyl-L-lysine,[HL]/[L][H],0.1,25.0,26:0:6:15:24,carboxylic_acid:amine_primary:amine_primary:amine_primary:amine_primary,26(carboxylic_acid) > 0(amine_primary) > 6(amine_primary) > 15(amine_primary) > 24(amine_primary),amine_primary,carboxylic_acid(1.5~5.0); amine_primary(9.0~11.0); amine_primary(9.0~11.0); amine_primary(9.0~11.0); amine_primary(9.0~11.0)
NCCCC[C@H](N)C(=O)N[C@H](CCCCN)C(=O)N[C@@H](CCCCN)C(O)=O,10.43,26:0:6:15:24,carboxylic_acid:amine_primary:amine_primary:amine_primary:amine_primary,L-Lysyl-D-lysyl-L-lysine,[H₂L]/[HL][H],0.1,25.0,26:0:6:15:24,carboxylic_acid:amine_primary:amine_primary:amine_primary:amine_primary,26(carboxylic_acid) > 0(amine_primary) > 6(amine_primary) > 15(amine_primary) > 24(amine_primary),amine_primary,carboxylic_acid(1.5~5.0); amine_primary(9.0~11.0); amine_primary(9.0~11.0); amine_primary(9.0~11.0); amine_primary(9.0~11.0)
NCCCC[C@H](N)C(=O)N[C@H](CCCCN)C(=O)N[C@@H](CCCCN)C(O)=O,9.68,26:0:6:15:24,carboxylic_acid:amine_primary:amine_primary:amine_primary:amine_primary,L-Lysyl-D-lysyl-L-lysine,[H₃L]/[H₂L][H],0.1,25.0,26:0:6:15:24,carboxylic_acid:amine_primary:amine_primary:amine_primary:amine_primary,26(carboxylic_acid) > 0(amine_primary) > 6(amine_primary) > 15(amine_primary) > 24(amine_primary),amine_primary,carboxylic_acid(1.5~5.0); amine_primary(9.0~11.0); amine_primary(9.0~11.0); amine_primary(9.0~11.0); amine_primary(9.0~11.0)
NCCCC[C@H](N)C(=O)N[C@H](CCCCN)C(=O)N[C@@H](CCCCN)C(O)=O,7.18,26:0:6:15:24,carboxylic_acid:amine_primary:amine_primary:amine_primary:amine_primary,L-Lysyl-D-lysyl-L-lysine,[H₄L]/[H₃L][H],0.1,25.0,26:0:6:15:24,carboxylic_acid:amine_primary:amine_primary:amine_primary:amine_primary,26(carboxylic_acid) > 0(amine_primary) > 6(amine_primary) > 15(amine_primary) > 24(amine_primary),amine_primary,carboxylic_acid(1.5~5.0); amine_primary(9.0~11.0); amine_primary(9.0~11.0); amine_primary(9.0~11.0); amine_primary(9.0~11.0)
NCCCC[C@H](N)C(=O)N[C@H](CCCCN)C(=O)N[C@@H](CCCCN)C(O)=O,2.8,26:0:6:15:24,carboxylic_acid:amine_primary:amine_primary:amine_primary:amine_primary,L-Lysyl-D-lysyl-L-lysine,[H₅L]/[H₄L][H],0.1,25.0,26:0:6:15:24,carboxylic_acid:amine_primary:amine_primary:amine_primary:amine_primary,26(carboxylic_acid) > 0(amine_primary) > 6(amine_primary) > 15(amine_primary) > 24(amine_primary),carboxylic_acid,carboxylic_acid(1.5~5.0); amine_primary(9.0~11.0); amine_primary(9.0~11.0); amine_primary(9.0~11.0); amine_primary(9.0~11.0)
NCCCC[C@H](N)C(=O)N[C@H](CCCCN)C(=O)N[C@H](CCCCN)C(O)=O,10.98,26:0:6:15:24,carboxylic_acid:amine_primary:amine_primary:amine_primary:amine_primary,L-Lysyl-D-lysyl-D-lysine,[HL]/[L][H],0.1,25.0,26:0:6:15:24,carboxylic_acid:amine_primary:amine_primary:amine_primary:amine_primary,26(carboxylic_acid) > 0(amine_primary) > 6(amine_primary) > 15(amine_primary) > 24(amine_primary),amine_primary,carboxylic_acid(1.5~5.0); amine_primary(9.0~11.0); amine_primary(9.0~11.0); amine_primary(9.0~11.0); amine_primary(9.0~11.0)
NCCCC[C@H](N)C(=O)N[C@H](CCCCN)C(=O)N[C@H](CCCCN)C(O)=O,10.27,26:0:6:15:24,carboxylic_acid:amine_primary:amine_primary:amine_primary:amine_primary,L-Lysyl-D-lysyl-D-lysine,[H₂L]/[HL][H],0.1,25.0,26:0:6:15:24,carboxylic_acid:amine_primary:amine_primary:amine_primary:amine_primary,26(carboxylic_acid) > 0(amine_primary) > 6(amine_primary) > 15(amine_primary) > 24(amine_primary),amine_primary,carboxylic_acid(1.5~5.0); amine_primary(9.0~11.0); amine_primary(9.0~11.0); amine_primary(9.0~11.0); amine_primary(9.0~11.0)
NCCCC[C@H](N)C(=O)N[C@H](CCCCN)C(=O)N[C@H](CCCCN)C(O)=O,9.49,26:0:6:15:24,carboxylic_acid:amine_primary:amine_primary:amine_primary:amine_primary,L-Lysyl-D-lysyl-D-lysine,[H₃L]/[H₂L][H],0.1,25.0,26:0:6:15:24,carboxylic_acid:amine_primary:amine_primary:amine_primary:amine_primary,26(carboxylic_acid) > 0(amine_primary) > 6(amine_primary) > 15(amine_primary) > 24(amine_primary),amine_primary,carboxylic_acid(1.5~5.0); amine_primary(9.0~11.0); amine_primary(9.0~11.0); amine_primary(9.0~11.0); amine_primary(9.0~11.0)
NCCCC[C@H](N)C(=O)N[C@H](CCCCN)C(=O)N[C@H](CCCCN)C(O)=O,7.03,26:0:6:15:24,carboxylic_acid:amine_primary:amine_primary:amine_primary:amine_primary,L-Lysyl-D-lysyl-D-lysine,[H₄L]/[H₃L][H],0.1,25.0,26:0:6:15:24,carboxylic_acid:amine_primary:amine_primary:amine_primary:amine_primary,26(carboxylic_acid) > 0(amine_primary) > 6(amine_primary) > 15(amine_primary) > 24(amine_primary),amine_primary,carboxylic_acid(1.5~5.0); amine_primary(9.0~11.0); amine_primary(9.0~11.0); amine_primary(9.0~11.0); amine_primary(9.0~11.0)
NCCCC[C@H](N)C(=O)N[C@H](CCCCN)C(=O)N[C@H](CCCCN)C(O)=O,2.83,26:0:6:15:24,carboxylic_acid:amine_primary:amine_primary:amine_primary:amine_primary,L-Lysyl-D-lysyl-D-lysine,[H₅L]/[H₄L][H],0.1,25.0,26:0:6:15:24,carboxylic_acid:amine_primary:amine_primary:amine_primary:amine_primary,26(carboxylic_acid) > 0(amine_primary) > 6(amine_primary) > 15(amine_primary) > 24(amine_primary),carboxylic_acid,carboxylic_acid(1.5~5.0); amine_primary(9.0~11.0); amine_primary(9.0~11.0); amine_primary(9.0~11.0); amine_primary(9.0~11.0)
N[C@@H](CCC(=O)N[C@@H](CS)C(=O)NCC(O)=O)C(O)=O,9.51,15:18:0:6,carboxylic_acid:carboxylic_acid:amine_primary:amine_secondary,L-5-Glutamyl-L-cysteinylglycine (Glutathione),[HL]/[L][H],0.1,25.0,15:18:0:6,carboxylic_acid:carboxylic_acid:amine_primary:amine_secondary,15(carboxylic_acid) > 18(carboxylic_acid) > 0(amine_primary) > 6(amine_secondary),amine_primary,carboxylic_acid(1.5~5.0); carboxylic_acid(1.5~5.0); amine_primary(9.0~11.0); amine_secondary(9.5~11.5)
N[C@@H](CCC(=O)N[C@@H](CS)C(=O)NCC(O)=O)C(O)=O,9.27,15:18:0:6,carboxylic_acid:carboxylic_acid:amine_primary:amine_secondary,L-5-Glutamyl-L-cysteinylglycine (Glutathione),[HL]/[L][H],0.15,37.0,15:18:0:6,carboxylic_acid:carboxylic_acid:amine_primary:amine_secondary,15(carboxylic_acid) > 18(carboxylic_acid) > 0(amine_primary) > 6(amine_secondary),amine_primary,carboxylic_acid(1.5~5.0); carboxylic_acid(1.5~5.0); amine_primary(9.0~11.0); amine_secondary(9.5~11.5)
N[C@@H](CCC(=O)N[C@@H](CS)C(=O)NCC(O)=O)C(O)=O,9.37,15:18:0:6,carboxylic_acid:carboxylic_acid:amine_primary:amine_secondary,L-5-Glutamyl-L-cysteinylglycine (Glutathione),[HL]/[L][H],0.5,25.0,15:18:0:6,carboxylic_acid:carboxylic_acid:amine_primary:amine_secondary,15(carboxylic_acid) > 18(carboxylic_acid) > 0(amine_primary) > 6(amine_secondary),amine_primary,carboxylic_acid(1.5~5.0); carboxylic_acid(1.5~5.0); amine_primary(9.0~11.0); amine_secondary(9.5~11.5)
N[C@@H](CCC(=O)N[C@@H](CS)C(=O)NCC(O)=O)C(O)=O,9.88,15:18:0:6,carboxylic_acid:carboxylic_acid:amine_primary:amine_secondary,L-5-Glutamyl-L-cysteinylglycine (Glutathione),[HL]/[L][H],3.0,25.0,15:18:0:6,carboxylic_acid:carboxylic_acid:amine_primary:amine_secondary,15(carboxylic_acid) > 18(carboxylic_acid) > 0(amine_primary) > 6(amine_secondary),amine_primary,carboxylic_acid(1.5~5.0); carboxylic_acid(1.5~5.0); amine_primary(9.0~11.0); amine_secondary(9.5~11.5)
N[C@@H](CCC(=O)N[C@@H](CS)C(=O)NCC(O)=O)C(O)=O,8.64,15:18:0:6,carboxylic_acid:carboxylic_acid:amine_primary:amine_secondary,L-5-Glutamyl-L-cysteinylglycine (Glutathione),[H₂L]/[HL][H],0.1,25.0,15:18:0:6,carboxylic_acid:carboxylic_acid:amine_primary:amine_secondary,15(carboxylic_acid) > 18(carboxylic_acid) > 0(amine_primary) > 6(amine_secondary),amine_primary,carboxylic_acid(1.5~5.0); carboxylic_acid(1.5~5.0); amine_primary(9.0~11.0); amine_secondary(9.5~11.5)
N[C@@H](CCC(=O)N[C@@H](CS)C(=O)NCC(O)=O)C(O)=O,8.39,15:18:0:6,carboxylic_acid:carboxylic_acid:amine_primary:amine_secondary,L-5-Glutamyl-L-cysteinylglycine (Glutathione),[H₂L]/[HL][H],0.15,37.0,15:18:0:6,carboxylic_acid:carboxylic_acid:amine_primary:amine_secondary,15(carboxylic_acid) > 18(carboxylic_acid) > 0(amine_primary) > 6(amine_secondary),amine_primary,carboxylic_acid(1.5~5.0); carboxylic_acid(1.5~5.0); amine_primary(9.0~11.0); amine_secondary(9.5~11.5)