SMILES,pKa,Dissociable_Atoms,Functional_Group,Name,Equilibrium,Ionic,Temperature,Dissociable_Atoms_Ordered,Functional_Group_Ordered,Dissociation_Order,Dissociating_Group,Functional_Group_pKa_Ranges
CN1CCN2CCN(C)CCN(CC1)CCN(C)CC2,11.8,1,tertiary_amine,"4,10,15-Trimethyl-1,4,7,10,15-pentaazabicyclo[5.5.5]heptadecane",[HL]/[L][H],0.1,25.0,1,tertiary_amine,1(tertiary_amine),Unknown,tertiary_amine(Unknown)
CN1CCN2CCN(C)CCN(CC1)CCN(C)CC2,10.0,1,tertiary_amine,"4,10,15-Trimethyl-1,4,7,10,15-pentaazabicyclo[5.5.5]heptadecane",[H₂L]/[HL][H],0.1,25.0,1,tertiary_amine,1(tertiary_amine),Unknown,tertiary_amine(Unknown)
CN1CCN2CCCNCCCN(CC1)CCN(C)CC2,8.41,1,tertiary_amine,"12,17-Dimethyl-1,5,9,12,17-pentaazabicyclo[7.5.5]nonadecane",[H₂L]/[HL][H],0.1,25.0,1,tertiary_amine,1(tertiary_amine),Unknown,tertiary_amine(Unknown)
CN1CCCN2CCN(C)CCN(CCC1)CCN(C)CC2,11.83,1,tertiary_amine,"5,12,17-Trimethyl-1,5,9,12,17-pentaazabicyclo[7.5.5]nonadecane",[HL]/[L][H],0.1,25.0,1,tertiary_amine,1(tertiary_amine),Unknown,tertiary_amine(Unknown)
CN1CCCN2CCN(C)CCN(CCC1)CCN(C)CC2,9.53,1,tertiary_amine,"5,12,17-Trimethyl-1,5,9,12,17-pentaazabicyclo[7.5.5]nonadecane",[H₂L]/[HL][H],0.1,25.0,1,tertiary_amine,1(tertiary_amine),Unknown,tertiary_amine(Unknown)
CN1CCCN2CCN(C)CCN(CCC1)CCN(C)CC2,3.43,1,tertiary_amine,"5,12,17-Trimethyl-1,5,9,12,17-pentaazabicyclo[7.5.5]nonadecane",[H₃L]/[H₂L][H],0.1,25.0,1,tertiary_amine,1(tertiary_amine),Unknown,tertiary_amine(Unknown)
C1CCNCCNCCNCCNCCNC1,10.38,3:6:9,amine_secondary:amine_secondary:amine_secondary,"1,4,7,10,13-Pentaazacycloheptadecane",[HL]/[L][H],0.1,35.0,3:6:9,amine_secondary:amine_secondary:amine_secondary,3(amine_secondary) > 6(amine_secondary) > 9(amine_secondary),amine_secondary,amine_secondary(9.5~11.5); amine_secondary(9.5~11.5); amine_secondary(9.5~11.5)
C1CCNCCNCCNCCNCCNC1,9.61,3:6:9,amine_secondary:amine_secondary:amine_secondary,"1,4,7,10,13-Pentaazacycloheptadecane",[H₂L]/[HL][H],0.1,35.0,3:6:9,amine_secondary:amine_secondary:amine_secondary,3(amine_secondary) > 6(amine_secondary) > 9(amine_secondary),amine_secondary,amine_secondary(9.5~11.5); amine_secondary(9.5~11.5); amine_secondary(9.5~11.5)
C1CCNCCNCCNCCNCCNC1,7.85,3:6:9,amine_secondary:amine_secondary:amine_secondary,"1,4,7,10,13-Pentaazacycloheptadecane",[H₃L]/[H₂L][H],0.1,35.0,3:6:9,amine_secondary:amine_secondary:amine_secondary,3(amine_secondary) > 6(amine_secondary) > 9(amine_secondary),amine_secondary,amine_secondary(9.5~11.5); amine_secondary(9.5~11.5); amine_secondary(9.5~11.5)
C1CCNCCNCCNCCNCCNCC1,10.03,3:6:9,amine_secondary:amine_secondary:amine_secondary,"1,4,7,10,13-Pentaazacyclooctadecane",[HL]/[L][H],0.1,35.0,3:6:9,amine_secondary:amine_secondary:amine_secondary,3(amine_secondary) > 6(amine_secondary) > 9(amine_secondary),amine_secondary,amine_secondary(9.5~11.5); amine_secondary(9.5~11.5); amine_secondary(9.5~11.5)
C1CCNCCNCCNCCNCCNCC1,9.4,3:6:9,amine_secondary:amine_secondary:amine_secondary,"1,4,7,10,13-Pentaazacyclooctadecane",[H₂L]/[HL][H],0.1,35.0,3:6:9,amine_secondary:amine_secondary:amine_secondary,3(amine_secondary) > 6(amine_secondary) > 9(amine_secondary),amine_secondary,amine_secondary(9.5~11.5); amine_secondary(9.5~11.5); amine_secondary(9.5~11.5)
C1CCNCCNCCNCCNCCNCC1,8.43,3:6:9,amine_secondary:amine_secondary:amine_secondary,"1,4,7,10,13-Pentaazacyclooctadecane",[H₃L]/[H₂L][H],0.1,35.0,3:6:9,amine_secondary:amine_secondary:amine_secondary,3(amine_secondary) > 6(amine_secondary) > 9(amine_secondary),amine_secondary,amine_secondary(9.5~11.5); amine_secondary(9.5~11.5); amine_secondary(9.5~11.5)
C1CCCNCCNCCNCCNCCNCC1,9.99,4:7:10:13,amine_secondary:amine_secondary:amine_secondary:amine_secondary,"1,4,7,10,13-Pentaazacyclononadecane",[HL]/[L][H],0.1,35.0,4:7:10:13,amine_secondary:amine_secondary:amine_secondary:amine_secondary,4(amine_secondary) > 7(amine_secondary) > 10(amine_secondary) > 13(amine_secondary),amine_secondary,amine_secondary(9.5~11.5); amine_secondary(9.5~11.5); amine_secondary(9.5~11.5); amine_secondary(9.5~11.5)
C1CCCNCCNCCNCCNCCNCC1,9.4,4:7:10:13,amine_secondary:amine_secondary:amine_secondary:amine_secondary,"1,4,7,10,13-Pentaazacyclononadecane",[H₂L]/[HL][H],0.1,35.0,4:7:10:13,amine_secondary:amine_secondary:amine_secondary:amine_secondary,4(amine_secondary) > 7(amine_secondary) > 10(amine_secondary) > 13(amine_secondary),amine_secondary,amine_secondary(9.5~11.5); amine_secondary(9.5~11.5); amine_secondary(9.5~11.5); amine_secondary(9.5~11.5)
C1CCCNCCNCCNCCNCCNCC1,8.39,4:7:10:13,amine_secondary:amine_secondary:amine_secondary:amine_secondary,"1,4,7,10,13-Pentaazacyclononadecane",[H₃L]/[H₂L][H],0.1,35.0,4:7:10:13,amine_secondary:amine_secondary:amine_secondary:amine_secondary,4(amine_secondary) > 7(amine_secondary) > 10(amine_secondary) > 13(amine_secondary),amine_secondary,amine_secondary(9.5~11.5); amine_secondary(9.5~11.5); amine_secondary(9.5~11.5); amine_secondary(9.5~11.5)
C1CCCNCCNCCNCCNCCNCC1,2.4,4:7:10:13,amine_secondary:amine_secondary:amine_secondary:amine_secondary,"1,4,7,10,13-Pentaazacyclononadecane",[H₄L]/[H₃L][H],0.1,35.0,4:7:10:13,amine_secondary:amine_secondary:amine_secondary:amine_secondary,4(amine_secondary) > 7(amine_secondary) > 10(amine_secondary) > 13(amine_secondary),amine_secondary,amine_secondary(9.5~11.5); amine_secondary(9.5~11.5); amine_secondary(9.5~11.5); amine_secondary(9.5~11.5)
C1CNCCNCCCNCCNCCNC1,10.2,2:5:9:12:15,amine_secondary:amine_secondary:amine_secondary:amine_secondary:amine_secondary,"1,4,7,11,14-Pentaazacycloheptadecane",[HL]/[L][H],0.1,25.0,2:5:9:12:15,amine_secondary:amine_secondary:amine_secondary:amine_secondary:amine_secondary,2(amine_secondary) > 5(amine_secondary) > 9(amine_secondary) > 12(amine_secondary) > 15(amine_secondary),amine_secondary,amine_secondary(9.5~11.5); amine_secondary(9.5~11.5); amine_secondary(9.5~11.5); amine_secondary(9.5~11.5); amine_secondary(9.5~11.5)
C1CNCCNCCCNCCNCCNC1,9.5,2:5:9:12:15,amine_secondary:amine_secondary:amine_secondary:amine_secondary:amine_secondary,"1,4,7,11,14-Pentaazacycloheptadecane",[H₂L]/[HL][H],0.1,25.0,2:5:9:12:15,amine_secondary:amine_secondary:amine_secondary:amine_secondary:amine_secondary,2(amine_secondary) > 5(amine_secondary) > 9(amine_secondary) > 12(amine_secondary) > 15(amine_secondary),amine_secondary,amine_secondary(9.5~11.5); amine_secondary(9.5~11.5); amine_secondary(9.5~11.5); amine_secondary(9.5~11.5); amine_secondary(9.5~11.5)
C1CNCCNCCCNCCNCCNC1,7.24,2:5:9:12:15,amine_secondary:amine_secondary:amine_secondary:amine_secondary:amine_secondary,"1,4,7,11,14-Pentaazacycloheptadecane",[H₃L]/[H₂L][H],0.1,25.0,2:5:9:12:15,amine_secondary:amine_secondary:amine_secondary:amine_secondary:amine_secondary,2(amine_secondary) > 5(amine_secondary) > 9(amine_secondary) > 12(amine_secondary) > 15(amine_secondary),amine_secondary,amine_secondary(9.5~11.5); amine_secondary(9.5~11.5); amine_secondary(9.5~11.5); amine_secondary(9.5~11.5); amine_secondary(9.5~11.5)
C1CNCCNCCCNCCNCCNC1,3.98,2:5:9:12:15,amine_secondary:amine_secondary:amine_secondary:amine_secondary:amine_secondary,"1,4,7,11,14-Pentaazacycloheptadecane",[H₄L]/[H₃L][H],0.1,25.0,2:5:9:12:15,amine_secondary:amine_secondary:amine_secondary:amine_secondary:amine_secondary,2(amine_secondary) > 5(amine_secondary) > 9(amine_secondary) > 12(amine_secondary) > 15(amine_secondary),amine_secondary,amine_secondary(9.5~11.5); amine_secondary(9.5~11.5); amine_secondary(9.5~11.5); amine_secondary(9.5~11.5); amine_secondary(9.5~11.5)
C1CNCCNCCCNCCNCCNC1,2.26,2:5:9:12:15,amine_secondary:amine_secondary:amine_secondary:amine_secondary:amine_secondary,"1,4,7,11,14-Pentaazacycloheptadecane",[H₅L]/[H₄L][H],0.1,25.0,2:5:9:12:15,amine_secondary:amine_secondary:amine_secondary:amine_secondary:amine_secondary,2(amine_secondary) > 5(amine_secondary) > 9(amine_secondary) > 12(amine_secondary) > 15(amine_secondary),amine_secondary,amine_secondary(9.5~11.5); amine_secondary(9.5~11.5); amine_secondary(9.5~11.5); amine_secondary(9.5~11.5); amine_secondary(9.5~11.5)
CN1CCNCCNCCN(C)CCNCCNCC1,9.78,4:7:14:17,amine_secondary:amine_secondary:amine_secondary:amine_secondary,"1,10-Dimethyl-1,4,7,10,13,16-hexaazacyclooctadecane",[HL]/[L][H],0.1,25.0,4:7:14:17,amine_secondary:amine_secondary:amine_secondary:amine_secondary,4(amine_secondary) > 7(amine_secondary) > 14(amine_secondary) > 17(amine_secondary),amine_secondary,amine_secondary(9.5~11.5); amine_secondary(9.5~11.5); amine_secondary(9.5~11.5); amine_secondary(9.5~11.5)
CN1CCNCCNCCN(C)CCNCCNCC1,9.09,4:7:14:17,amine_secondary:amine_secondary:amine_secondary:amine_secondary,"1,10-Dimethyl-1,4,7,10,13,16-hexaazacyclooctadecane",[H₂L]/[HL][H],0.1,25.0,4:7:14:17,amine_secondary:amine_secondary:amine_secondary:amine_secondary,4(amine_secondary) > 7(amine_secondary) > 14(amine_secondary) > 17(amine_secondary),amine_secondary,amine_secondary(9.5~11.5); amine_secondary(9.5~11.5); amine_secondary(9.5~11.5); amine_secondary(9.5~11.5)
CN1CCNCCNCCN(C)CCNCCNCC1,7.76,4:7:14:17,amine_secondary:amine_secondary:amine_secondary:amine_secondary,"1,10-Dimethyl-1,4,7,10,13,16-hexaazacyclooctadecane",[H₃L]/[H₂L][H],0.1,25.0,4:7:14:17,amine_secondary:amine_secondary:amine_secondary:amine_secondary,4(amine_secondary) > 7(amine_secondary) > 14(amine_secondary) > 17(amine_secondary),amine_secondary,amine_secondary(9.5~11.5); amine_secondary(9.5~11.5); amine_secondary(9.5~11.5); amine_secondary(9.5~11.5)
CN1CCNCCNCCN(C)CCNCCNCC1,3.84,4:7:14:17,amine_secondary:amine_secondary:amine_secondary:amine_secondary,"1,10-Dimethyl-1,4,7,10,13,16-hexaazacyclooctadecane",[H₄L]/[H₃L][H],0.1,25.0,4:7:14:17,amine_secondary:amine_secondary:amine_secondary:amine_secondary,4(amine_secondary) > 7(amine_secondary) > 14(amine_secondary) > 17(amine_secondary),amine_secondary,amine_secondary(9.5~11.5); amine_secondary(9.5~11.5); amine_secondary(9.5~11.5); amine_secondary(9.5~11.5)
CN1CCNCCN(C)CCN(C)CCN(C)CCNCC1,9.75,1,tertiary_amine,"1,4,7,13-Tetramethyl-1,4,7,10,13,16-hexaazacyclooctadecane",[HL]/[L][H],0.1,25.0,1,tertiary_amine,1(tertiary_amine),Unknown,tertiary_amine(Unknown)
CN1CCNCCN(C)CCN(C)CCN(C)CCNCC1,9.11,1,tertiary_amine,"1,4,7,13-Tetramethyl-1,4,7,10,13,16-hexaazacyclooctadecane",[H₂L]/[HL][H],0.1,25.0,1,tertiary_amine,1(tertiary_amine),Unknown,tertiary_amine(Unknown)
CN1CCNCCN(C)CCN(C)CCN(C)CCNCC1,7.53,1,tertiary_amine,"1,4,7,13-Tetramethyl-1,4,7,10,13,16-hexaazacyclooctadecane",[H₃L]/[H₂L][H],0.1,25.0,1,tertiary_amine,1(tertiary_amine),Unknown,tertiary_amine(Unknown)
CN1CCNCCN(C)CCN(C)CCN(C)CCNCC1,2.59,1,tertiary_amine,"1,4,7,13-Tetramethyl-1,4,7,10,13,16-hexaazacyclooctadecane",[H₄L]/[H₃L][H],0.1,25.0,1,tertiary_amine,1(tertiary_amine),Unknown,tertiary_amine(Unknown)
C1CCNCCNCCNCCCCNCCNCCNC1,10.64,3:6:9:14:17:20,amine_secondary:amine_secondary:amine_secondary:amine_secondary:amine_secondary:amine_secondary,"1,4,7,12,15,18-Hexaazacyclodocosane",[HL]/[L][H],0.5,25.0,3:6:9:14:17:20,amine_secondary:amine_secondary:amine_secondary:amine_secondary:amine_secondary:amine_secondary,3(amine_secondary) > 6(amine_secondary) > 9(amine_secondary) > 14(amine_secondary) > 17(amine_secondary) > 20(amine_secondary),amine_secondary,amine_secondary(9.5~11.5); amine_secondary(9.5~11.5); amine_secondary(9.5~11.5); amine_secondary(9.5~11.5); amine_secondary(9.5~11.5); amine_secondary(9.5~11.5)
C1CCNCCNCCNCCCCNCCNCCNC1,10.12,3:6:9:14:17:20,amine_secondary:amine_secondary:amine_secondary:amine_secondary:amine_secondary:amine_secondary,"1,4,7,12,15,18-Hexaazacyclodocosane",[H₂L]/[HL][H],0.5,25.0,3:6:9:14:17:20,amine_secondary:amine_secondary:amine_secondary:amine_secondary:amine_secondary:amine_secondary,3(amine_secondary) > 6(amine_secondary) > 9(amine_secondary) > 14(amine_secondary) > 17(amine_secondary) > 20(amine_secondary),amine_secondary,amine_secondary(9.5~11.5); amine_secondary(9.5~11.5); amine_secondary(9.5~11.5); amine_secondary(9.5~11.5); amine_secondary(9.5~11.5); amine_secondary(9.5~11.5)
C1CCNCCNCCNCCCCNCCNCCNC1,9.37,3:6:9:14:17:20,amine_secondary:amine_secondary:amine_secondary:amine_secondary:amine_secondary:amine_secondary,"1,4,7,12,15,18-Hexaazacyclodocosane",[H₃L]/[H₂L][H],0.5,25.0,3:6:9:14:17:20,amine_secondary:amine_secondary:amine_secondary:amine_secondary:amine_secondary:amine_secondary,3(amine_secondary) > 6(amine_secondary) > 9(amine_secondary) > 14(amine_secondary) > 17(amine_secondary) > 20(amine_secondary),amine_secondary,amine_secondary(9.5~11.5); amine_secondary(9.5~11.5); amine_secondary(9.5~11.5); amine_secondary(9.5~11.5); amine_secondary(9.5~11.5); amine_secondary(9.5~11.5)
C1CCNCCNCCNCCCCNCCNCCNC1,8.86,3:6:9:14:17:20,amine_secondary:amine_secondary:amine_secondary:amine_secondary:amine_secondary:amine_secondary,"1,4,7,12,15,18-Hexaazacyclodocosane",[H₄L]/[H₃L][H],0.5,25.0,3:6:9:14:17:20,amine_secondary:amine_secondary:amine_secondary:amine_secondary:amine_secondary:amine_secondary,3(amine_secondary) > 6(amine_secondary) > 9(amine_secondary) > 14(amine_secondary) > 17(amine_secondary) > 20(amine_secondary),amine_secondary,amine_secondary(9.5~11.5); amine_secondary(9.5~11.5); amine_secondary(9.5~11.5); amine_secondary(9.5~11.5); amine_secondary(9.5~11.5); amine_secondary(9.5~11.5)
C1CCNCCNCCNCCCCNCCNCCNC1,3.44,3:6:9:14:17:20,amine_secondary:amine_secondary:amine_secondary:amine_secondary:amine_secondary:amine_secondary,"1,4,7,12,15,18-Hexaazacyclodocosane",[H₅L]/[H₄L][H],0.5,25.0,3:6:9:14:17:20,amine_secondary:amine_secondary:amine_secondary:amine_secondary:amine_secondary:amine_secondary,3(amine_secondary) > 6(amine_secondary) > 9(amine_secondary) > 14(amine_secondary) > 17(amine_secondary) > 20(amine_secondary),amine_secondary,amine_secondary(9.5~11.5); amine_secondary(9.5~11.5); amine_secondary(9.5~11.5); amine_secondary(9.5~11.5); amine_secondary(9.5~11.5); amine_secondary(9.5~11.5)
C1CCNCCNCCNCCCCNCCNCCNC1,3.42,3:6:9:14:17:20,amine_secondary:amine_secondary:amine_secondary:amine_secondary:amine_secondary:amine_secondary,"1,4,7,12,15,18-Hexaazacyclodocosane",[H₆L]/[H₅L][H],0.5,25.0,3:6:9:14:17:20,amine_secondary:amine_secondary:amine_secondary:amine_secondary:amine_secondary:amine_secondary,3(amine_secondary) > 6(amine_secondary) > 9(amine_secondary) > 14(amine_secondary) > 17(amine_secondary) > 20(amine_secondary),amine_secondary,amine_secondary(9.5~11.5); amine_secondary(9.5~11.5); amine_secondary(9.5~11.5); amine_secondary(9.5~11.5); amine_secondary(9.5~11.5); amine_secondary(9.5~11.5)
C1CNCCCNCCCNCCCNCCCNCCCNC1,10.48,2:6:10:14:18:22,amine_secondary:amine_secondary:amine_secondary:amine_secondary:amine_secondary:amine_secondary,"1,5,9,13,17,21-Hexaazacyclotetracosane",[HL]/[L][H],0.1,25.0,2:6:10:14:18:22,amine_secondary:amine_secondary:amine_secondary:amine_secondary:amine_secondary:amine_secondary,2(amine_secondary) > 6(amine_secondary) > 10(amine_secondary) > 14(amine_secondary) > 18(amine_secondary) > 22(amine_secondary),amine_secondary,amine_secondary(9.5~11.5); amine_secondary(9.5~11.5); amine_secondary(9.5~11.5); amine_secondary(9.5~11.5); amine_secondary(9.5~11.5); amine_secondary(9.5~11.5)
C1CNCCCNCCCNCCCNCCCNCCCNC1,10.96,2:6:10:14:18:22,amine_secondary:amine_secondary:amine_secondary:amine_secondary:amine_secondary:amine_secondary,"1,5,9,13,17,21-Hexaazacyclotetracosane",[HL]/[L][H],1.0,25.0,2:6:10:14:18:22,amine_secondary:amine_secondary:amine_secondary:amine_secondary:amine_secondary:amine_secondary,2(amine_secondary) > 6(amine_secondary) > 10(amine_secondary) > 14(amine_secondary) > 18(amine_secondary) > 22(amine_secondary),amine_secondary,amine_secondary(9.5~11.5); amine_secondary(9.5~11.5); amine_secondary(9.5~11.5); amine_secondary(9.5~11.5); amine_secondary(9.5~11.5); amine_secondary(9.5~11.5)
C1CNCCCNCCCNCCCNCCCNCCCNC1,10.28,2:6:10:14:18:22,amine_secondary:amine_secondary:amine_secondary:amine_secondary:amine_secondary:amine_secondary,"1,5,9,13,17,21-Hexaazacyclotetracosane",[H₂L]/[HL][H],0.1,25.0,2:6:10:14:18:22,amine_secondary:amine_secondary:amine_secondary:amine_secondary:amine_secondary:amine_secondary,2(amine_secondary) > 6(amine_secondary) > 10(amine_secondary) > 14(amine_secondary) > 18(amine_secondary) > 22(amine_secondary),amine_secondary,amine_secondary(9.5~11.5); amine_secondary(9.5~11.5); amine_secondary(9.5~11.5); amine_secondary(9.5~11.5); amine_secondary(9.5~11.5); amine_secondary(9.5~11.5)
C1CNCCCNCCCNCCCNCCCNCCCNC1,10.32,2:6:10:14:18:22,amine_secondary:amine_secondary:amine_secondary:amine_secondary:amine_secondary:amine_secondary,"1,5,9,13,17,21-Hexaazacyclotetracosane",[H₂L]/[HL][H],1.0,25.0,2:6:10:14:18:22,amine_secondary:amine_secondary:amine_secondary:amine_secondary:amine_secondary:amine_secondary,2(amine_secondary) > 6(amine_secondary) > 10(amine_secondary) > 14(amine_secondary) > 18(amine_secondary) > 22(amine_secondary),amine_secondary,amine_secondary(9.5~11.5); amine_secondary(9.5~11.5); amine_secondary(9.5~11.5); amine_secondary(9.5~11.5); amine_secondary(9.5~11.5); amine_secondary(9.5~11.5)
C1CNCCCNCCCNCCCNCCCNCCCNC1,9.15,2:6:10:14:18:22,amine_secondary:amine_secondary:amine_secondary:amine_secondary:amine_secondary:amine_secondary,"1,5,9,13,17,21-Hexaazacyclotetracosane",[H₃L]/[H₂L][H],0.1,25.0,2:6:10:14:18:22,amine_secondary:amine_secondary:amine_secondary:amine_secondary:amine_secondary:amine_secondary,2(amine_secondary) > 6(amine_secondary) > 10(amine_secondary) > 14(amine_secondary) > 18(amine_secondary) > 22(amine_secondary),amine_secondary,amine_secondary(9.5~11.5); amine_secondary(9.5~11.5); amine_secondary(9.5~11.5); amine_secondary(9.5~11.5); amine_secondary(9.5~11.5); amine_secondary(9.5~11.5)
C1CNCCCNCCCNCCCNCCCNCCCNC1,9.61,2:6:10:14:18:22,amine_secondary:amine_secondary:amine_secondary:amine_secondary:amine_secondary:amine_secondary,"1,5,9,13,17,21-Hexaazacyclotetracosane",[H₃L]/[H₂L][H],1.0,25.0,2:6:10:14:18:22,amine_secondary:amine_secondary:amine_secondary:amine_secondary:amine_secondary:amine_secondary,2(amine_secondary) > 6(amine_secondary) > 10(amine_secondary) > 14(amine_secondary) > 18(amine_secondary) > 22(amine_secondary),amine_secondary,amine_secondary(9.5~11.5); amine_secondary(9.5~11.5); amine_secondary(9.5~11.5); amine_secondary(9.5~11.5); amine_secondary(9.5~11.5); amine_secondary(9.5~11.5)
C1CNCCCNCCCNCCCNCCCNCCCNC1,7.95,2:6:10:14:18:22,amine_secondary:amine_secondary:amine_secondary:amine_secondary:amine_secondary:amine_secondary,"1,5,9,13,17,21-Hexaazacyclotetracosane",[H₄L]/[H₃L][H],0.1,25.0,2:6:10:14:18:22,amine_secondary:amine_secondary:amine_secondary:amine_secondary:amine_secondary:amine_secondary,2(amine_secondary) > 6(amine_secondary) > 10(amine_secondary) > 14(amine_secondary) > 18(amine_secondary) > 22(amine_secondary),amine_secondary,amine_secondary(9.5~11.5); amine_secondary(9.5~11.5); amine_secondary(9.5~11.5); amine_secondary(9.5~11.5); amine_secondary(9.5~11.5); amine_secondary(9.5~11.5)
C1CNCCCNCCCNCCCNCCCNCCCNC1,8.16,2:6:10:14:18:22,amine_secondary:amine_secondary:amine_secondary:amine_secondary:amine_secondary:amine_secondary,"1,5,9,13,17,21-Hexaazacyclotetracosane",[H₄L]/[H₃L][H],1.0,25.0,2:6:10:14:18:22,amine_secondary:amine_secondary:amine_secondary:amine_secondary:amine_secondary:amine_secondary,2(amine_secondary) > 6(amine_secondary) > 10(amine_secondary) > 14(amine_secondary) > 18(amine_secondary) > 22(amine_secondary),amine_secondary,amine_secondary(9.5~11.5); amine_secondary(9.5~11.5); amine_secondary(9.5~11.5); amine_secondary(9.5~11.5); amine_secondary(9.5~11.5); amine_secondary(9.5~11.5)
C1CNCCCNCCCNCCCNCCCNCCCNC1,7.1,2:6:10:14:18:22,amine_secondary:amine_secondary:amine_secondary:amine_secondary:amine_secondary:amine_secondary,"1,5,9,13,17,21-Hexaazacyclotetracosane",[H₅L]/[H₄L][H],0.1,25.0,2:6:10:14:18:22,amine_secondary:amine_secondary:amine_secondary:amine_secondary:amine_secondary:amine_secondary,2(amine_secondary) > 6(amine_secondary) > 10(amine_secondary) > 14(amine_secondary) > 18(amine_secondary) > 22(amine_secondary),amine_secondary,amine_secondary(9.5~11.5); amine_secondary(9.5~11.5); amine_secondary(9.5~11.5); amine_secondary(9.5~11.5); amine_secondary(9.5~11.5); amine_secondary(9.5~11.5)