SMILES,pKa,Dissociable_Atoms,Functional_Group,Name,Equilibrium,Ionic,Temperature,Dissociable_Atoms_Ordered,Functional_Group_Ordered,Dissociation_Order,Dissociating_Group,Functional_Group_pKa_Ranges
CCC1CNCCNCCCNCCNC1,10.9,4:7:11,amine_secondary:amine_secondary:amine_secondary,"6-Ethyl-1,4,8,11-tetraazacyclotetradecane",[HL]/[L][H],0.1,35.0,4:7:11,amine_secondary:amine_secondary:amine_secondary,4(amine_secondary) > 7(amine_secondary) > 11(amine_secondary),amine_secondary,amine_secondary(9.5~11.5); amine_secondary(9.5~11.5); amine_secondary(9.5~11.5)
CCC1CNCCNCCCNCCNC1,10.02,4:7:11,amine_secondary:amine_secondary:amine_secondary,"6-Ethyl-1,4,8,11-tetraazacyclotetradecane",[H₂L]/[HL][H],0.1,35.0,4:7:11,amine_secondary:amine_secondary:amine_secondary,4(amine_secondary) > 7(amine_secondary) > 11(amine_secondary),amine_secondary,amine_secondary(9.5~11.5); amine_secondary(9.5~11.5); amine_secondary(9.5~11.5)
CCC1CNCCNCCCNCCNC1,2.6,4:7:11,amine_secondary:amine_secondary:amine_secondary,"6-Ethyl-1,4,8,11-tetraazacyclotetradecane",[H₃L]/[H₂L][H],0.1,35.0,4:7:11,amine_secondary:amine_secondary:amine_secondary,4(amine_secondary) > 7(amine_secondary) > 11(amine_secondary),amine_secondary,amine_secondary(9.5~11.5); amine_secondary(9.5~11.5); amine_secondary(9.5~11.5)
CCCC1CNCCNCCCNCCNC1,10.52,5:8:12,amine_secondary:amine_secondary:amine_secondary,"6-Propyl-1,4,8,11-tetraazacyclotetradecane",[HL]/[L][H],0.1,35.0,5:8:12,amine_secondary:amine_secondary:amine_secondary,5(amine_secondary) > 8(amine_secondary) > 12(amine_secondary),amine_secondary,amine_secondary(9.5~11.5); amine_secondary(9.5~11.5); amine_secondary(9.5~11.5)
CCCC1CNCCNCCCNCCNC1,9.92,5:8:12,amine_secondary:amine_secondary:amine_secondary,"6-Propyl-1,4,8,11-tetraazacyclotetradecane",[H₂L]/[HL][H],0.1,35.0,5:8:12,amine_secondary:amine_secondary:amine_secondary,5(amine_secondary) > 8(amine_secondary) > 12(amine_secondary),amine_secondary,amine_secondary(9.5~11.5); amine_secondary(9.5~11.5); amine_secondary(9.5~11.5)
CCCC1CNCCNCCCNCCNC1,3.2,5:8:12,amine_secondary:amine_secondary:amine_secondary,"6-Propyl-1,4,8,11-tetraazacyclotetradecane",[H₃L]/[H₂L][H],0.1,35.0,5:8:12,amine_secondary:amine_secondary:amine_secondary,5(amine_secondary) > 8(amine_secondary) > 12(amine_secondary),amine_secondary,amine_secondary(9.5~11.5); amine_secondary(9.5~11.5); amine_secondary(9.5~11.5)
CCCCC1CNCCNCCCNCCNC1,10.52,6:9:13,amine_secondary:amine_secondary:amine_secondary,"6-Butyl-1,4,8,11-tetraazacyclotetradecane",[HL]/[L][H],0.1,35.0,6:9:13,amine_secondary:amine_secondary:amine_secondary,6(amine_secondary) > 9(amine_secondary) > 13(amine_secondary),amine_secondary,amine_secondary(9.5~11.5); amine_secondary(9.5~11.5); amine_secondary(9.5~11.5)
CCCCC1CNCCNCCCNCCNC1,9.88,6:9:13,amine_secondary:amine_secondary:amine_secondary,"6-Butyl-1,4,8,11-tetraazacyclotetradecane",[H₂L]/[HL][H],0.1,35.0,6:9:13,amine_secondary:amine_secondary:amine_secondary,6(amine_secondary) > 9(amine_secondary) > 13(amine_secondary),amine_secondary,amine_secondary(9.5~11.5); amine_secondary(9.5~11.5); amine_secondary(9.5~11.5)
CCCCC1CNCCNCCCNCCNC1,2.8,6:9:13,amine_secondary:amine_secondary:amine_secondary,"6-Butyl-1,4,8,11-tetraazacyclotetradecane",[H₃L]/[H₂L][H],0.1,35.0,6:9:13,amine_secondary:amine_secondary:amine_secondary,6(amine_secondary) > 9(amine_secondary) > 13(amine_secondary),amine_secondary,amine_secondary(9.5~11.5); amine_secondary(9.5~11.5); amine_secondary(9.5~11.5)
C1CNCCNCCC(NCCNC1)c2ccccc2,10.7,2:5,amine_secondary:amine_secondary,"5-(Phenyl)-1,4,8,11-tetraazacyclotetradecane",[HL]/[L][H],0.1,25.0,2:5,amine_secondary:amine_secondary,2(amine_secondary) > 5(amine_secondary),amine_secondary,amine_secondary(9.5~11.5); amine_secondary(9.5~11.5)
C1CNCCNCCC(NCCNC1)c2ccccc2,10.06,2:5,amine_secondary:amine_secondary,"5-(Phenyl)-1,4,8,11-tetraazacyclotetradecane",[H₂L]/[HL][H],0.1,25.0,2:5,amine_secondary:amine_secondary,2(amine_secondary) > 5(amine_secondary),amine_secondary,amine_secondary(9.5~11.5); amine_secondary(9.5~11.5)
C1CNCCNCC(CNCCNC1)Cc2ccccc2,10.51,2:5:9,amine_secondary:amine_secondary:amine_secondary,"6-Benzyl-1,4,8,11-tetraazacyclotetradecane",[HL]/[L][H],0.1,35.0,2:5:9,amine_secondary:amine_secondary:amine_secondary,2(amine_secondary) > 5(amine_secondary) > 9(amine_secondary),amine_secondary,amine_secondary(9.5~11.5); amine_secondary(9.5~11.5); amine_secondary(9.5~11.5)
C1CNCCNCC(CNCCNC1)Cc2ccccc2,9.74,2:5:9,amine_secondary:amine_secondary:amine_secondary,"6-Benzyl-1,4,8,11-tetraazacyclotetradecane",[H₂L]/[HL][H],0.1,35.0,2:5:9,amine_secondary:amine_secondary:amine_secondary,2(amine_secondary) > 5(amine_secondary) > 9(amine_secondary),amine_secondary,amine_secondary(9.5~11.5); amine_secondary(9.5~11.5); amine_secondary(9.5~11.5)
C1CNCCNCC(CNCCNC1)Cc2ccccc2,2.4,2:5:9,amine_secondary:amine_secondary:amine_secondary,"6-Benzyl-1,4,8,11-tetraazacyclotetradecane",[H₃L]/[H₂L][H],0.1,35.0,2:5:9,amine_secondary:amine_secondary:amine_secondary,2(amine_secondary) > 5(amine_secondary) > 9(amine_secondary),amine_secondary,amine_secondary(9.5~11.5); amine_secondary(9.5~11.5); amine_secondary(9.5~11.5)
CC1(C)NCCCNCCNCCCNC1(C)C,12.2,3:7:10,amine_secondary:amine_secondary:amine_secondary,"2,2,3,3-Tetramethyl-1,4,8,11-tetraazacyclotetradecane",[HL]/[L][H],0.1,25.0,3:7:10,amine_secondary:amine_secondary:amine_secondary,3(amine_secondary) > 7(amine_secondary) > 10(amine_secondary),amine_secondary,amine_secondary(9.5~11.5); amine_secondary(9.5~11.5); amine_secondary(9.5~11.5)
CC1(C)NCCCNCCNCCCNC1(C)C,10.19,3:7:10,amine_secondary:amine_secondary:amine_secondary,"2,2,3,3-Tetramethyl-1,4,8,11-tetraazacyclotetradecane",[H₂L]/[HL][H],0.1,25.0,3:7:10,amine_secondary:amine_secondary:amine_secondary,3(amine_secondary) > 7(amine_secondary) > 10(amine_secondary),amine_secondary,amine_secondary(9.5~11.5); amine_secondary(9.5~11.5); amine_secondary(9.5~11.5)
CC1(C)NCCCNCCNCCCNC1(C)C,3.7,3:7:10,amine_secondary:amine_secondary:amine_secondary,"2,2,3,3-Tetramethyl-1,4,8,11-tetraazacyclotetradecane",[H₃L]/[H₂L][H],0.1,25.0,3:7:10,amine_secondary:amine_secondary:amine_secondary,3(amine_secondary) > 7(amine_secondary) > 10(amine_secondary),amine_secondary,amine_secondary(9.5~11.5); amine_secondary(9.5~11.5); amine_secondary(9.5~11.5)
CN1CCCNCCNCCCNCC1,11.25,1,tertiary_amine,"1-Methyl-1,4,8,11-tetraazacyclotetradecane",[HL]/[L][H],0.5,25.0,1,tertiary_amine,1(tertiary_amine),Unknown,tertiary_amine(Unknown)
CN1CCCNCCNCCCNCC1,10.2,1,tertiary_amine,"1-Methyl-1,4,8,11-tetraazacyclotetradecane",[H₂L]/[HL][H],0.5,25.0,1,tertiary_amine,1(tertiary_amine),Unknown,tertiary_amine(Unknown)
CN1CCCNCCNCCCNCC1,2.6,1,tertiary_amine,"1-Methyl-1,4,8,11-tetraazacyclotetradecane",[H₃L]/[H₂L][H],0.5,25.0,1,tertiary_amine,1(tertiary_amine),Unknown,tertiary_amine(Unknown)
CN1CCCNCCNCCCNCC1,2.2,1,tertiary_amine,"1-Methyl-1,4,8,11-tetraazacyclotetradecane",[H₄L]/[H₃L][H],0.5,25.0,1,tertiary_amine,1(tertiary_amine),Unknown,tertiary_amine(Unknown)
CN1CCCN(C)CCNCCCNCC1,10.75,1,tertiary_amine,"4,8-Dimethyl-1,4,8,11-tetraazacyclotetradecane",[HL]/[L][H],0.5,25.0,1,tertiary_amine,1(tertiary_amine),Unknown,tertiary_amine(Unknown)
CN1CCCN(C)CCNCCCNCC1,9.75,1,tertiary_amine,"4,8-Dimethyl-1,4,8,11-tetraazacyclotetradecane",[H₂L]/[HL][H],0.5,25.0,1,tertiary_amine,1(tertiary_amine),Unknown,tertiary_amine(Unknown)
CN1CCCN(C)CCNCCCNCC1,2.9,1,tertiary_amine,"4,8-Dimethyl-1,4,8,11-tetraazacyclotetradecane",[H₃L]/[H₂L][H],0.5,25.0,1,tertiary_amine,1(tertiary_amine),Unknown,tertiary_amine(Unknown)
CN1CCCN(C)CCNCCCNCC1,2.2,1,tertiary_amine,"4,8-Dimethyl-1,4,8,11-tetraazacyclotetradecane",[H₄L]/[H₃L][H],0.5,25.0,1,tertiary_amine,1(tertiary_amine),Unknown,tertiary_amine(Unknown)
CN1CCCN(C)CCN(C)CCCN(C)CC1,9.36,1,tertiary_amine,"1,4,8,11-Tetramethyl-1,4,8,11-tetraazacyclotetradecane",[HL]/[L][H],0.1,25.0,1,tertiary_amine,1(tertiary_amine),Unknown,tertiary_amine(Unknown)
CN1CCCN(C)CCN(C)CCCN(C)CC1,9.7,1,tertiary_amine,"1,4,8,11-Tetramethyl-1,4,8,11-tetraazacyclotetradecane",[HL]/[L][H],0.5,25.0,1,tertiary_amine,1(tertiary_amine),Unknown,tertiary_amine(Unknown)
CN1CCCN(C)CCN(C)CCCN(C)CC1,9.02,1,tertiary_amine,"1,4,8,11-Tetramethyl-1,4,8,11-tetraazacyclotetradecane",[H₂L]/[HL][H],0.1,25.0,1,tertiary_amine,1(tertiary_amine),Unknown,tertiary_amine(Unknown)
CN1CCCN(C)CCN(C)CCCN(C)CC1,9.31,1,tertiary_amine,"1,4,8,11-Tetramethyl-1,4,8,11-tetraazacyclotetradecane",[H₂L]/[HL][H],0.5,25.0,1,tertiary_amine,1(tertiary_amine),Unknown,tertiary_amine(Unknown)
CN1CCCN(C)CCN(C)CCCN(C)CC1,2.54,1,tertiary_amine,"1,4,8,11-Tetramethyl-1,4,8,11-tetraazacyclotetradecane",[H₃L]/[H₂L][H],0.1,25.0,1,tertiary_amine,1(tertiary_amine),Unknown,tertiary_amine(Unknown)
CN1CCCN(C)CCN(C)CCCN(C)CC1,3.09,1,tertiary_amine,"1,4,8,11-Tetramethyl-1,4,8,11-tetraazacyclotetradecane",[H₃L]/[H₂L][H],0.5,25.0,1,tertiary_amine,1(tertiary_amine),Unknown,tertiary_amine(Unknown)
CN1CCCN(C)CCN(C)CCCN(C)CC1,2.25,1,tertiary_amine,"1,4,8,11-Tetramethyl-1,4,8,11-tetraazacyclotetradecane",[H₄L]/[H₃L][H],0.1,25.0,1,tertiary_amine,1(tertiary_amine),Unknown,tertiary_amine(Unknown)
CN1CCCN(C)CCN(C)CCCN(C)CC1,2.64,1,tertiary_amine,"1,4,8,11-Tetramethyl-1,4,8,11-tetraazacyclotetradecane",[H₄L]/[H₃L][H],0.5,25.0,1,tertiary_amine,1(tertiary_amine),Unknown,tertiary_amine(Unknown)
FC1CNCCNCCCNCCNC1,10.96,3:6,amine_secondary:amine_secondary,"6-Fluoro-1,4,8,11-tetraazacyclotetradecane",[HL]/[L][H],0.1,25.0,3:6,amine_secondary:amine_secondary,3(amine_secondary) > 6(amine_secondary),amine_secondary,amine_secondary(9.5~11.5); amine_secondary(9.5~11.5)
FC1CNCCNCCCNCCNC1,9.41,3:6,amine_secondary:amine_secondary,"6-Fluoro-1,4,8,11-tetraazacyclotetradecane",[H₂L]/[HL][H],0.1,25.0,3:6,amine_secondary:amine_secondary,3(amine_secondary) > 6(amine_secondary),amine_secondary,amine_secondary(9.5~11.5); amine_secondary(9.5~11.5)
CC1(F)CNCCNCCCNCCNC1,11.34,4:7,amine_secondary:amine_secondary,"6-Fluoro-6-methyl-1,4,8,11-tetraazacyclotetradecane",[HL]/[L][H],0.1,25.0,4:7,amine_secondary:amine_secondary,4(amine_secondary) > 7(amine_secondary),amine_secondary,amine_secondary(9.5~11.5); amine_secondary(9.5~11.5)
CC1(F)CNCCNCCCNCCNC1,9.69,4:7,amine_secondary:amine_secondary,"6-Fluoro-6-methyl-1,4,8,11-tetraazacyclotetradecane",[H₂L]/[HL][H],0.1,25.0,4:7,amine_secondary:amine_secondary,4(amine_secondary) > 7(amine_secondary),amine_secondary,amine_secondary(9.5~11.5); amine_secondary(9.5~11.5)
FC1(F)CNCCNCCCNCCNC1,10.78,4:7,amine_secondary:amine_secondary,"6,6-Difluoro-1,4,8,11-tetraazacyclotetradecane",[HL]/[L][H],0.1,25.0,4:7,amine_secondary:amine_secondary,4(amine_secondary) > 7(amine_secondary),amine_secondary,amine_secondary(9.5~11.5); amine_secondary(9.5~11.5)
FC1(F)CNCCNCCCNCCNC1,7.52,4:7,amine_secondary:amine_secondary,"6,6-Difluoro-1,4,8,11-tetraazacyclotetradecane",[H₂L]/[HL][H],0.1,25.0,4:7,amine_secondary:amine_secondary,4(amine_secondary) > 7(amine_secondary),amine_secondary,amine_secondary(9.5~11.5); amine_secondary(9.5~11.5)
FC1(F)CNCCNCC(F)(F)CNCCNC1,8.22,4:7,amine_secondary:amine_secondary,"6,6,13,13-Tetrafluoro-1,4,8,11-tetraazacyclotetradecane",[HL]/[L][H],0.1,25.0,4:7,amine_secondary:amine_secondary,4(amine_secondary) > 7(amine_secondary),amine_secondary,amine_secondary(9.5~11.5); amine_secondary(9.5~11.5)
FC1(F)CNCCNCC(F)(F)CNCCNC1,6.7,4:7,amine_secondary:amine_secondary,"6,6,13,13-Tetrafluoro-1,4,8,11-tetraazacyclotetradecane",[H₂L]/[HL][H],0.1,25.0,4:7,amine_secondary:amine_secondary,4(amine_secondary) > 7(amine_secondary),amine_secondary,amine_secondary(9.5~11.5); amine_secondary(9.5~11.5)
NC1CNCCNCCCNCCNC1,11.41,0:3:6,amine_primary:amine_secondary:amine_secondary,"6-Amino-1,4,8,11-tetraazacyclotetradecane",[HL]/[L][H],0.1,25.0,0:3:6,amine_primary:amine_secondary:amine_secondary,0(amine_primary) > 3(amine_secondary) > 6(amine_secondary),amine_secondary,amine_primary(9.0~11.0); amine_secondary(9.5~11.5); amine_secondary(9.5~11.5)
NC1CNCCNCCCNCCNC1,9.94,0:3:6,amine_primary:amine_secondary:amine_secondary,"6-Amino-1,4,8,11-tetraazacyclotetradecane",[H₂L]/[HL][H],0.1,25.0,0:3:6,amine_primary:amine_secondary:amine_secondary,0(amine_primary) > 3(amine_secondary) > 6(amine_secondary),amine_primary,amine_primary(9.0~11.0); amine_secondary(9.5~11.5); amine_secondary(9.5~11.5)
NC1CNCCNCCCNCCNC1,6.08,0:3:6,amine_primary:amine_secondary:amine_secondary,"6-Amino-1,4,8,11-tetraazacyclotetradecane",[H₃L]/[H₂L][H],0.1,25.0,0:3:6,amine_primary:amine_secondary:amine_secondary,0(amine_primary) > 3(amine_secondary) > 6(amine_secondary),amine_primary,amine_primary(9.0~11.0); amine_secondary(9.5~11.5); amine_secondary(9.5~11.5)
C1CCNCCNCCCNCCNCC1,9.81,3:6:10:13,amine_secondary:amine_secondary:amine_secondary:amine_secondary,"1,4,8,11-Tetraazacyclohexadecane",[HL]/[L][H],0.1,35.0,3:6:10:13,amine_secondary:amine_secondary:amine_secondary:amine_secondary,3(amine_secondary) > 6(amine_secondary) > 10(amine_secondary) > 13(amine_secondary),amine_secondary,amine_secondary(9.5~11.5); amine_secondary(9.5~11.5); amine_secondary(9.5~11.5); amine_secondary(9.5~11.5)
C1CCNCCNCCCNCCNCC1,9.28,3:6:10:13,amine_secondary:amine_secondary:amine_secondary:amine_secondary,"1,4,8,11-Tetraazacyclohexadecane",[H₂L]/[HL][H],0.1,35.0,3:6:10:13,amine_secondary:amine_secondary:amine_secondary:amine_secondary,3(amine_secondary) > 6(amine_secondary) > 10(amine_secondary) > 13(amine_secondary),amine_secondary,amine_secondary(9.5~11.5); amine_secondary(9.5~11.5); amine_secondary(9.5~11.5); amine_secondary(9.5~11.5)
C1CCNCCNCCCNCCNCC1,5.42,3:6:10:13,amine_secondary:amine_secondary:amine_secondary:amine_secondary,"1,4,8,11-Tetraazacyclohexadecane",[H₃L]/[H₂L][H],0.1,35.0,3:6:10:13,amine_secondary:amine_secondary:amine_secondary:amine_secondary,3(amine_secondary) > 6(amine_secondary) > 10(amine_secondary) > 13(amine_secondary),amine_secondary,amine_secondary(9.5~11.5); amine_secondary(9.5~11.5); amine_secondary(9.5~11.5); amine_secondary(9.5~11.5)
C1CCNCCNCCCNCCNCC1,2.9,3:6:10:13,amine_secondary:amine_secondary:amine_secondary:amine_secondary,"1,4,8,11-Tetraazacyclohexadecane",[H₄L]/[H₃L][H],0.1,35.0,3:6:10:13,amine_secondary:amine_secondary:amine_secondary:amine_secondary,3(amine_secondary) > 6(amine_secondary) > 10(amine_secondary) > 13(amine_secondary),amine_secondary,amine_secondary(9.5~11.5); amine_secondary(9.5~11.5); amine_secondary(9.5~11.5); amine_secondary(9.5~11.5)
C1CCNCCCNCCNCCCNC1,9.92,3:7:10:14,amine_secondary:amine_secondary:amine_secondary:amine_secondary,"1,5,8,12-Tetraazacyclohexadecane",[HL]/[L][H],0.1,25.0,3:7:10:14,amine_secondary:amine_secondary:amine_secondary:amine_secondary,3(amine_secondary) > 7(amine_secondary) > 10(amine_secondary) > 14(amine_secondary),amine_secondary,amine_secondary(9.5~11.5); amine_secondary(9.5~11.5); amine_secondary(9.5~11.5); amine_secondary(9.5~11.5)
C1CCNCCCNCCNCCCNC1,10.73,3:7:10:14,amine_secondary:amine_secondary:amine_secondary:amine_secondary,"1,5,8,12-Tetraazacyclohexadecane",[HL]/[L][H],0.5,25.0,3:7:10:14,amine_secondary:amine_secondary:amine_secondary:amine_secondary,3(amine_secondary) > 7(amine_secondary) > 10(amine_secondary) > 14(amine_secondary),amine_secondary,amine_secondary(9.5~11.5); amine_secondary(9.5~11.5); amine_secondary(9.5~11.5); amine_secondary(9.5~11.5)
C1CCNCCCNCCNCCCNC1,9.57,3:7:10:14,amine_secondary:amine_secondary:amine_secondary:amine_secondary,"1,5,8,12-Tetraazacyclohexadecane",[H₂L]/[HL][H],0.1,25.0,3:7:10:14,amine_secondary:amine_secondary:amine_secondary:amine_secondary,3(amine_secondary) > 7(amine_secondary) > 10(amine_secondary) > 14(amine_secondary),amine_secondary,amine_secondary(9.5~11.5); amine_secondary(9.5~11.5); amine_secondary(9.5~11.5); amine_secondary(9.5~11.5)
C1CCNCCCNCCNCCCNC1,9.85,3:7:10:14,amine_secondary:amine_secondary:amine_secondary:amine_secondary,"1,5,8,12-Tetraazacyclohexadecane",[H₂L]/[HL][H],0.5,25.0,3:7:10:14,amine_secondary:amine_secondary:amine_secondary:amine_secondary,3(amine_secondary) > 7(amine_secondary) > 10(amine_secondary) > 14(amine_secondary),amine_secondary,amine_secondary(9.5~11.5); amine_secondary(9.5~11.5); amine_secondary(9.5~11.5); amine_secondary(9.5~11.5)
C1CCNCCCNCCNCCCNC1,6.68,3:7:10:14,amine_secondary:amine_secondary:amine_secondary:amine_secondary,"1,5,8,12-Tetraazacyclohexadecane",[H₃L]/[H₂L][H],0.1,25.0,3:7:10:14,amine_secondary:amine_secondary:amine_secondary:amine_secondary,3(amine_secondary) > 7(amine_secondary) > 10(amine_secondary) > 14(amine_secondary),amine_secondary,amine_secondary(9.5~11.5); amine_secondary(9.5~11.5); amine_secondary(9.5~11.5); amine_secondary(9.5~11.5)
C1CCNCCCNCCNCCCNC1,6.83,3:7:10:14,amine_secondary:amine_secondary:amine_secondary:amine_secondary,"1,5,8,12-Tetraazacyclohexadecane",[H₃L]/[H₂L][H],0.5,25.0,3:7:10:14,amine_secondary:amine_secondary:amine_secondary:amine_secondary,3(amine_secondary) > 7(amine_secondary) > 10(amine_secondary) > 14(amine_secondary),amine_secondary,amine_secondary(9.5~11.5); amine_secondary(9.5~11.5); amine_secondary(9.5~11.5); amine_secondary(9.5~11.5)
C1CCNCCCNCCNCCCNC1,3.42,3:7:10:14,amine_secondary:amine_secondary:amine_secondary:amine_secondary,"1,5,8,12-Tetraazacyclohexadecane",[H₄L]/[H₃L][H],0.1,25.0,3:7:10:14,amine_secondary:amine_secondary:amine_secondary:amine_secondary,3(amine_secondary) > 7(amine_secondary) > 10(amine_secondary) > 14(amine_secondary),amine_secondary,amine_secondary(9.5~11.5); amine_secondary(9.5~11.5); amine_secondary(9.5~11.5); amine_secondary(9.5~11.5)
C1CCNCCCNCCNCCCNC1,3.96,3:7:10:14,amine_secondary:amine_secondary:amine_secondary:amine_secondary,"1,5,8,12-Tetraazacyclohexadecane",[H₄L]/[H₃L][H],0.5,25.0,3:7:10:14,amine_secondary:amine_secondary:amine_secondary:amine_secondary,3(amine_secondary) > 7(amine_secondary) > 10(amine_secondary) > 14(amine_secondary),amine_secondary,amine_secondary(9.5~11.5); amine_secondary(9.5~11.5); amine_secondary(9.5~11.5); amine_secondary(9.5~11.5)
C1CCNCCCNCCCNCCCNC1,11.2,3:7:11:15,amine_secondary:amine_secondary:amine_secondary:amine_secondary,"1,5,9,13-Tetraazacycloheptadecane",[HL]/[L][H],0.5,25.0,3:7:11:15,amine_secondary:amine_secondary:amine_secondary:amine_secondary,3(amine_secondary) > 7(amine_secondary) > 11(amine_secondary) > 15(amine_secondary),amine_secondary,amine_secondary(9.5~11.5); amine_secondary(9.5~11.5); amine_secondary(9.5~11.5); amine_secondary(9.5~11.5)
C1CCNCCCNCCCNCCCNC1,10.13,3:7:11:15,amine_secondary:amine_secondary:amine_secondary:amine_secondary,"1,5,9,13-Tetraazacycloheptadecane",[H₂L]/[HL][H],0.5,25.0,3:7:11:15,amine_secondary:amine_secondary:amine_secondary:amine_secondary,3(amine_secondary) > 7(amine_secondary) > 11(amine_secondary) > 15(amine_secondary),amine_secondary,amine_secondary(9.5~11.5); amine_secondary(9.5~11.5); amine_secondary(9.5~11.5); amine_secondary(9.5~11.5)
C1CCNCCCNCCCNCCCNC1,7.96,3:7:11:15,amine_secondary:amine_secondary:amine_secondary:amine_secondary,"1,5,9,13-Tetraazacycloheptadecane",[H₃L]/[H₂L][H],0.5,25.0,3:7:11:15,amine_secondary:amine_secondary:amine_secondary:amine_secondary,3(amine_secondary) > 7(amine_secondary) > 11(amine_secondary) > 15(amine_secondary),amine_secondary,amine_secondary(9.5~11.5); amine_secondary(9.5~11.5); amine_secondary(9.5~11.5); amine_secondary(9.5~11.5)
C1CCNCCCNCCCNCCCNC1,6.3,3:7:11:15,amine_secondary:amine_secondary:amine_secondary:amine_secondary,"1,5,9,13-Tetraazacycloheptadecane",[H₄L]/[H₃L][H],0.5,25.0,3:7:11:15,amine_secondary:amine_secondary:amine_secondary:amine_secondary,3(amine_secondary) > 7(amine_secondary) > 11(amine_secondary) > 15(amine_secondary),amine_secondary,amine_secondary(9.5~11.5); amine_secondary(9.5~11.5); amine_secondary(9.5~11.5); amine_secondary(9.5~11.5)
CN1CCN2CCNCCN(CC1)CCN(C)CC2,12.5,1,tertiary_amine,"4,10-Dimethyl-1,4,7,10,15-pentaazabicyclo[5.5.5]heptadecane",[HL]/[L][H],0.1,25.0,1,tertiary_amine,1(tertiary_amine),Unknown,tertiary_amine(Unknown)
CN1CCN2CCNCCN(CC1)CCN(C)CC2,9.05,1,tertiary_amine,"4,10-Dimethyl-1,4,7,10,15-pentaazabicyclo[5.5.5]heptadecane",[H₂L]/[HL][H],0.1,25.0,1,tertiary_amine,1(tertiary_amine),Unknown,tertiary_amine(Unknown)