SMILES,pKa,Dissociable_Atoms,Functional_Group,Name,Equilibrium,Ionic,Temperature,Dissociable_Atoms_Ordered,Functional_Group_Ordered,Dissociation_Order,Dissociating_Group,Functional_Group_pKa_Ranges
C[C@H](NC(=O)[C@@H]1CCCN1)C(O)=O,8.98,11:2,carboxylic_acid:amine_secondary,L-Prolyl-L-alanine,[HL]/[L][H],0.1,25.0,11:2,carboxylic_acid:amine_secondary,11(carboxylic_acid) > 2(amine_secondary),amine_secondary,carboxylic_acid(1.5~5.0); amine_secondary(9.5~11.5)
C[C@H](NC(=O)[C@@H]1CCCN1)C(O)=O,9.07,11:2,carboxylic_acid:amine_secondary,L-Prolyl-L-alanine,[HL]/[L][H],0.1,20.0,11:2,carboxylic_acid:amine_secondary,11(carboxylic_acid) > 2(amine_secondary),amine_secondary,carboxylic_acid(1.5~5.0); amine_secondary(9.5~11.5)
C[C@H](NC(=O)[C@@H]1CCCN1)C(O)=O,3.27,11:2,carboxylic_acid:amine_secondary,L-Prolyl-L-alanine,[H₂L]/[HL][H],0.1,25.0,11:2,carboxylic_acid:amine_secondary,11(carboxylic_acid) > 2(amine_secondary),carboxylic_acid,carboxylic_acid(1.5~5.0); amine_secondary(9.5~11.5)
C[C@H](NC(=O)[C@@H]1CCCN1)C(O)=O,3.08,11:2,carboxylic_acid:amine_secondary,L-Prolyl-L-alanine,[H₂L]/[HL][H],0.1,20.0,11:2,carboxylic_acid:amine_secondary,11(carboxylic_acid) > 2(amine_secondary),carboxylic_acid,carboxylic_acid(1.5~5.0); amine_secondary(9.5~11.5)
C[C@@H](NC(=O)[C@@H]1CCCN1)C(O)=O,9.09,11:2,carboxylic_acid:amine_secondary,L-Prolyl-D-alanine,[HL]/[L][H],0.1,25.0,11:2,carboxylic_acid:amine_secondary,11(carboxylic_acid) > 2(amine_secondary),amine_secondary,carboxylic_acid(1.5~5.0); amine_secondary(9.5~11.5)
C[C@@H](NC(=O)[C@@H]1CCCN1)C(O)=O,3.15,11:2,carboxylic_acid:amine_secondary,L-Prolyl-D-alanine,[H₂L]/[HL][H],0.1,25.0,11:2,carboxylic_acid:amine_secondary,11(carboxylic_acid) > 2(amine_secondary),carboxylic_acid,carboxylic_acid(1.5~5.0); amine_secondary(9.5~11.5)
CC(C)[C@H](N)C(=O)N[C@@H](C(C)C)C(O)=O,7.96,13:4,carboxylic_acid:amine_primary,L-Valyl-L-valine,[HL]/[L][H],0.1,25.0,13:4,carboxylic_acid:amine_primary,13(carboxylic_acid) > 4(amine_primary),amine_primary,carboxylic_acid(1.5~5.0); amine_primary(9.0~11.0)
CC(C)[C@H](N)C(=O)N[C@@H](C(C)C)C(O)=O,3.4,13:4,carboxylic_acid:amine_primary,L-Valyl-L-valine,[H₂L]/[HL][H],0.1,25.0,13:4,carboxylic_acid:amine_primary,13(carboxylic_acid) > 4(amine_primary),carboxylic_acid,carboxylic_acid(1.5~5.0); amine_primary(9.0~11.0)
CC(C)[C@H](N)C(=O)N[C@H](C(C)C)C(O)=O,8.22,13:4,carboxylic_acid:amine_primary,L-Valyl-D-valine,[HL]/[L][H],0.1,25.0,13:4,carboxylic_acid:amine_primary,13(carboxylic_acid) > 4(amine_primary),amine_primary,carboxylic_acid(1.5~5.0); amine_primary(9.0~11.0)
CC(C)[C@H](N)C(=O)N[C@H](C(C)C)C(O)=O,3.04,13:4,carboxylic_acid:amine_primary,L-Valyl-D-valine,[H₂L]/[HL][H],0.1,25.0,13:4,carboxylic_acid:amine_primary,13(carboxylic_acid) > 4(amine_primary),carboxylic_acid,carboxylic_acid(1.5~5.0); amine_primary(9.0~11.0)
CC(C)[C@H](N)C(=O)N[C@@H](CCCCN)C(O)=O,10.0,15:4:13,carboxylic_acid:amine_primary:amine_primary,L-Valyl-L-lysine,[HL]/[L][H],0.1,37.0,15:4:13,carboxylic_acid:amine_primary:amine_primary,15(carboxylic_acid) > 4(amine_primary) > 13(amine_primary),amine_primary,carboxylic_acid(1.5~5.0); amine_primary(9.0~11.0); amine_primary(9.0~11.0)
CC(C)[C@H](N)C(=O)N[C@@H](CCCCN)C(O)=O,7.47,15:4:13,carboxylic_acid:amine_primary:amine_primary,L-Valyl-L-lysine,[H₂L]/[HL][H],0.1,37.0,15:4:13,carboxylic_acid:amine_primary:amine_primary,15(carboxylic_acid) > 4(amine_primary) > 13(amine_primary),amine_primary,carboxylic_acid(1.5~5.0); amine_primary(9.0~11.0); amine_primary(9.0~11.0)
CC(C)[C@H](N)C(=O)N[C@@H](CCCCN)C(O)=O,3.1,15:4:13,carboxylic_acid:amine_primary:amine_primary,L-Valyl-L-lysine,[H₃L]/[H₂L][H],0.1,37.0,15:4:13,carboxylic_acid:amine_primary:amine_primary,15(carboxylic_acid) > 4(amine_primary) > 13(amine_primary),carboxylic_acid,carboxylic_acid(1.5~5.0); amine_primary(9.0~11.0); amine_primary(9.0~11.0)
CC[C@H](C)[C@H](NC(=O)[C@@H](N)CC(C)C)C(O)=O,7.78,15:9,carboxylic_acid:amine_primary,L-Leucyl-L-isoleucine,[HL]/[L][H],0.1,25.0,15:9,carboxylic_acid:amine_primary,15(carboxylic_acid) > 9(amine_primary),amine_primary,carboxylic_acid(1.5~5.0); amine_primary(9.0~11.0)
CC[C@H](C)[C@H](NC(=O)[C@@H](N)CC(C)C)C(O)=O,3.42,15:9,carboxylic_acid:amine_primary,L-Leucyl-L-isoleucine,[H₂L]/[HL][H],0.1,25.0,15:9,carboxylic_acid:amine_primary,15(carboxylic_acid) > 9(amine_primary),carboxylic_acid,carboxylic_acid(1.5~5.0); amine_primary(9.0~11.0)
CC[C@H](C)[C@H](NC(=O)[C@H](N)CC(C)C)C(O)=O,8.09,15:9,carboxylic_acid:amine_primary,D-Leucyl-L-isoleucine,[HL]/[L][H],0.1,25.0,15:9,carboxylic_acid:amine_primary,15(carboxylic_acid) > 9(amine_primary),amine_primary,carboxylic_acid(1.5~5.0); amine_primary(9.0~11.0)
CC[C@H](C)[C@H](NC(=O)[C@H](N)CC(C)C)C(O)=O,3.06,15:9,carboxylic_acid:amine_primary,D-Leucyl-L-isoleucine,[H₂L]/[HL][H],0.1,25.0,15:9,carboxylic_acid:amine_primary,15(carboxylic_acid) > 9(amine_primary),carboxylic_acid,carboxylic_acid(1.5~5.0); amine_primary(9.0~11.0)
CC(C)C[C@H](N)C(=O)N[C@@H](Cc1ccccc1)C(O)=O,7.68,18:5,carboxylic_acid:amine_primary,L-Leucyl-L-phenylalanine,[HL]/[L][H],0.1,25.0,18:5,carboxylic_acid:amine_primary,18(carboxylic_acid) > 5(amine_primary),amine_primary,carboxylic_acid(1.5~5.0); amine_primary(9.0~11.0)
CC(C)C[C@H](N)C(=O)N[C@@H](Cc1ccccc1)C(O)=O,3.18,18:5,carboxylic_acid:amine_primary,L-Leucyl-L-phenylalanine,[H₂L]/[HL][H],0.1,25.0,18:5,carboxylic_acid:amine_primary,18(carboxylic_acid) > 5(amine_primary),carboxylic_acid,carboxylic_acid(1.5~5.0); amine_primary(9.0~11.0)
CC(C)C[C@H](N)C(=O)N[C@H](Cc1ccccc1)C(O)=O,8.15,18:5,carboxylic_acid:amine_primary,L-Leucyl-D-phenylalanine,[HL]/[L][H],0.1,25.0,18:5,carboxylic_acid:amine_primary,18(carboxylic_acid) > 5(amine_primary),amine_primary,carboxylic_acid(1.5~5.0); amine_primary(9.0~11.0)
CC(C)C[C@H](N)C(=O)N[C@H](Cc1ccccc1)C(O)=O,2.89,18:5,carboxylic_acid:amine_primary,L-Leucyl-D-phenylalanine,[H₂L]/[HL][H],0.1,25.0,18:5,carboxylic_acid:amine_primary,18(carboxylic_acid) > 5(amine_primary),carboxylic_acid,carboxylic_acid(1.5~5.0); amine_primary(9.0~11.0)
CC(C)C[C@H](N)C(=O)N[C@@H](Cc1ccc(O)cc1)C(O)=O,10.13,19:5:8,carboxylic_acid:amine_primary:amine_secondary,L-Leucyl-L-tyrosine,[HL]/[L][H],0.1,25.0,19:5:8,carboxylic_acid:amine_primary:amine_secondary,19(carboxylic_acid) > 5(amine_primary) > 8(amine_secondary),amine_primary,carboxylic_acid(1.5~5.0); amine_primary(9.0~11.0); amine_secondary(9.5~11.5)
CC(C)C[C@H](N)C(=O)N[C@@H](Cc1ccc(O)cc1)C(O)=O,7.79,19:5:8,carboxylic_acid:amine_primary:amine_secondary,L-Leucyl-L-tyrosine,[H₂L]/[HL][H],0.1,25.0,19:5:8,carboxylic_acid:amine_primary:amine_secondary,19(carboxylic_acid) > 5(amine_primary) > 8(amine_secondary),amine_primary,carboxylic_acid(1.5~5.0); amine_primary(9.0~11.0); amine_secondary(9.5~11.5)
CC(C)C[C@H](N)C(=O)N[C@@H](Cc1ccc(O)cc1)C(O)=O,3.23,19:5:8,carboxylic_acid:amine_primary:amine_secondary,L-Leucyl-L-tyrosine,[H₃L]/[H₂L][H],0.1,25.0,19:5:8,carboxylic_acid:amine_primary:amine_secondary,19(carboxylic_acid) > 5(amine_primary) > 8(amine_secondary),carboxylic_acid,carboxylic_acid(1.5~5.0); amine_primary(9.0~11.0); amine_secondary(9.5~11.5)
CC(C)C[C@@H](N)C(=O)N[C@@H](Cc1ccc(O)cc1)C(O)=O,10.36,19:5:8,carboxylic_acid:amine_primary:amine_secondary,D-Leucyl-L-tyrosine,[HL]/[L][H],0.1,25.0,19:5:8,carboxylic_acid:amine_primary:amine_secondary,19(carboxylic_acid) > 5(amine_primary) > 8(amine_secondary),amine_secondary,carboxylic_acid(1.5~5.0); amine_primary(9.0~11.0); amine_secondary(9.5~11.5)
CC(C)C[C@@H](N)C(=O)N[C@@H](Cc1ccc(O)cc1)C(O)=O,8.34,19:5:8,carboxylic_acid:amine_primary:amine_secondary,D-Leucyl-L-tyrosine,[H₂L]/[HL][H],0.1,25.0,19:5:8,carboxylic_acid:amine_primary:amine_secondary,19(carboxylic_acid) > 5(amine_primary) > 8(amine_secondary),amine_primary,carboxylic_acid(1.5~5.0); amine_primary(9.0~11.0); amine_secondary(9.5~11.5)
CC(C)C[C@@H](N)C(=O)N[C@@H](Cc1ccc(O)cc1)C(O)=O,2.9,19:5:8,carboxylic_acid:amine_primary:amine_secondary,D-Leucyl-L-tyrosine,[H₃L]/[H₂L][H],0.1,25.0,19:5:8,carboxylic_acid:amine_primary:amine_secondary,19(carboxylic_acid) > 5(amine_primary) > 8(amine_secondary),carboxylic_acid,carboxylic_acid(1.5~5.0); amine_primary(9.0~11.0); amine_secondary(9.5~11.5)
CC(C)C[C@H](NC(=O)[C@@H](N)Cc1ccccc1)C(O)=O,7.3,18:9,carboxylic_acid:amine_primary,L-Phenylalanyl-L-leucine,[HL]/[L][H],0.1,25.0,18:9,carboxylic_acid:amine_primary,18(carboxylic_acid) > 9(amine_primary),amine_primary,carboxylic_acid(1.5~5.0); amine_primary(9.0~11.0)
CC(C)C[C@H](NC(=O)[C@@H](N)Cc1ccccc1)C(O)=O,3.41,18:9,carboxylic_acid:amine_primary,L-Phenylalanyl-L-leucine,[H₂L]/[HL][H],0.1,25.0,18:9,carboxylic_acid:amine_primary,18(carboxylic_acid) > 9(amine_primary),carboxylic_acid,carboxylic_acid(1.5~5.0); amine_primary(9.0~11.0)
CC(C)C[C@H](NC(=O)[C@@H]1CCCN1)C(O)=O,9.04,14:5,carboxylic_acid:amine_secondary,L-Prolyl-L-leucine,[HL]/[L][H],0.1,20.0,14:5,carboxylic_acid:amine_secondary,14(carboxylic_acid) > 5(amine_secondary),amine_secondary,carboxylic_acid(1.5~5.0); amine_secondary(9.5~11.5)
CC(C)C[C@H](NC(=O)[C@@H]1CCCN1)C(O)=O,3.09,14:5,carboxylic_acid:amine_secondary,L-Prolyl-L-leucine,[H₂L]/[HL][H],0.1,20.0,14:5,carboxylic_acid:amine_secondary,14(carboxylic_acid) > 5(amine_secondary),carboxylic_acid,carboxylic_acid(1.5~5.0); amine_secondary(9.5~11.5)
CC(C)C[C@H](NC(=O)[C@@H](N)Cc1ccc(O)cc1)C(O)=O,10.11,19:9:5,carboxylic_acid:amine_primary:amine_secondary,L-Tyrosyl-L-leucine,[HL]/[L][H],0.1,25.0,19:9:5,carboxylic_acid:amine_primary:amine_secondary,19(carboxylic_acid) > 9(amine_primary) > 5(amine_secondary),amine_primary,carboxylic_acid(1.5~5.0); amine_primary(9.0~11.0); amine_secondary(9.5~11.5)
CC(C)C[C@H](NC(=O)[C@@H](N)Cc1ccc(O)cc1)C(O)=O,7.41,19:9:5,carboxylic_acid:amine_primary:amine_secondary,L-Tyrosyl-L-leucine,[H₂L]/[HL][H],0.1,25.0,19:9:5,carboxylic_acid:amine_primary:amine_secondary,19(carboxylic_acid) > 9(amine_primary) > 5(amine_secondary),amine_primary,carboxylic_acid(1.5~5.0); amine_primary(9.0~11.0); amine_secondary(9.5~11.5)
CC(C)C[C@H](NC(=O)[C@@H](N)Cc1ccc(O)cc1)C(O)=O,3.39,19:9:5,carboxylic_acid:amine_primary:amine_secondary,L-Tyrosyl-L-leucine,[H₃L]/[H₂L][H],0.1,25.0,19:9:5,carboxylic_acid:amine_primary:amine_secondary,19(carboxylic_acid) > 9(amine_primary) > 5(amine_secondary),carboxylic_acid,carboxylic_acid(1.5~5.0); amine_primary(9.0~11.0); amine_secondary(9.5~11.5)
CC(C)C[C@@H](NC(=O)[C@@H](N)Cc1ccc(O)cc1)C(O)=O,10.38,19:9:5,carboxylic_acid:amine_primary:amine_secondary,L-Tyrosyl-D-leucine,[HL]/[L][H],0.1,25.0,19:9:5,carboxylic_acid:amine_primary:amine_secondary,19(carboxylic_acid) > 9(amine_primary) > 5(amine_secondary),amine_secondary,carboxylic_acid(1.5~5.0); amine_primary(9.0~11.0); amine_secondary(9.5~11.5)
CC(C)C[C@@H](NC(=O)[C@@H](N)Cc1ccc(O)cc1)C(O)=O,7.86,19:9:5,carboxylic_acid:amine_primary:amine_secondary,L-Tyrosyl-D-leucine,[H₂L]/[HL][H],0.1,25.0,19:9:5,carboxylic_acid:amine_primary:amine_secondary,19(carboxylic_acid) > 9(amine_primary) > 5(amine_secondary),amine_primary,carboxylic_acid(1.5~5.0); amine_primary(9.0~11.0); amine_secondary(9.5~11.5)
CC(C)C[C@@H](NC(=O)[C@@H](N)Cc1ccc(O)cc1)C(O)=O,3.02,19:9:5,carboxylic_acid:amine_primary:amine_secondary,L-Tyrosyl-D-leucine,[H₃L]/[H₂L][H],0.1,25.0,19:9:5,carboxylic_acid:amine_primary:amine_secondary,19(carboxylic_acid) > 9(amine_primary) > 5(amine_secondary),carboxylic_acid,carboxylic_acid(1.5~5.0); amine_primary(9.0~11.0); amine_secondary(9.5~11.5)
CC(C)C[C@H](NC(=O)[C@@H](N)CO)C(O)=O,7.45,13:9,carboxylic_acid:amine_primary,L-Seryl-L-leucine,[HL]/[L][H],0.1,25.0,13:9,carboxylic_acid:amine_primary,13(carboxylic_acid) > 9(amine_primary),amine_primary,carboxylic_acid(1.5~5.0); amine_primary(9.0~11.0)
CC(C)C[C@H](NC(=O)[C@@H](N)CO)C(O)=O,3.08,13:9,carboxylic_acid:amine_primary,L-Seryl-L-leucine,[H₂L]/[HL][H],0.1,25.0,13:9,carboxylic_acid:amine_primary,13(carboxylic_acid) > 9(amine_primary),carboxylic_acid,carboxylic_acid(1.5~5.0); amine_primary(9.0~11.0)
CC(C)(N)C(=O)NC(C)(C)C(O)=O,8.26,11:3,carboxylic_acid:amine_primary,2-Methylalanyl-2-methylalanine,[HL]/[L][H],0.1,25.0,11:3,carboxylic_acid:amine_primary,11(carboxylic_acid) > 3(amine_primary),amine_primary,carboxylic_acid(1.5~5.0); amine_primary(9.0~11.0)
CC(C)(N)C(=O)NC(C)(C)C(O)=O,3.67,11:3,carboxylic_acid:amine_primary,2-Methylalanyl-2-methylalanine,[H₂L]/[HL][H],0.1,25.0,11:3,carboxylic_acid:amine_primary,11(carboxylic_acid) > 3(amine_primary),carboxylic_acid,carboxylic_acid(1.5~5.0); amine_primary(9.0~11.0)
N[C@@H](Cc1ccccc1)C(=O)N[C@@H](Cc2ccccc2)C(O)=O,7.27,21:0,carboxylic_acid:amine_primary,L-Phenylalanyl-L-phenylalanine,[HL]/[L][H],0.1,25.0,21:0,carboxylic_acid:amine_primary,21(carboxylic_acid) > 0(amine_primary),amine_primary,carboxylic_acid(1.5~5.0); amine_primary(9.0~11.0)
N[C@@H](Cc1ccccc1)C(=O)N[C@@H](Cc2ccccc2)C(O)=O,3.26,21:0,carboxylic_acid:amine_primary,L-Phenylalanyl-L-phenylalanine,[H₂L]/[HL][H],0.1,25.0,21:0,carboxylic_acid:amine_primary,21(carboxylic_acid) > 0(amine_primary),carboxylic_acid,carboxylic_acid(1.5~5.0); amine_primary(9.0~11.0)
N[C@@H](Cc1ccccc1)C(=O)N[C@@H](Cc2ccc(O)cc2)C(O)=O,9.99,22:0:11,carboxylic_acid:amine_primary:amine_secondary,L-Phenylalanyl-L-tyrosine,[HL]/[L][H],0.1,25.0,22:0:11,carboxylic_acid:amine_primary:amine_secondary,22(carboxylic_acid) > 0(amine_primary) > 11(amine_secondary),amine_primary,carboxylic_acid(1.5~5.0); amine_primary(9.0~11.0); amine_secondary(9.5~11.5)
N[C@@H](Cc1ccccc1)C(=O)N[C@@H](Cc2ccc(O)cc2)C(O)=O,7.23,22:0:11,carboxylic_acid:amine_primary:amine_secondary,L-Phenylalanyl-L-tyrosine,[H₂L]/[HL][H],0.1,25.0,22:0:11,carboxylic_acid:amine_primary:amine_secondary,22(carboxylic_acid) > 0(amine_primary) > 11(amine_secondary),amine_primary,carboxylic_acid(1.5~5.0); amine_primary(9.0~11.0); amine_secondary(9.5~11.5)
N[C@@H](Cc1ccccc1)C(=O)N[C@@H](Cc2ccc(O)cc2)C(O)=O,3.25,22:0:11,carboxylic_acid:amine_primary:amine_secondary,L-Phenylalanyl-L-tyrosine,[H₃L]/[H₂L][H],0.1,25.0,22:0:11,carboxylic_acid:amine_primary:amine_secondary,22(carboxylic_acid) > 0(amine_primary) > 11(amine_secondary),carboxylic_acid,carboxylic_acid(1.5~5.0); amine_primary(9.0~11.0); amine_secondary(9.5~11.5)
N[C@@H](Cc1ccccc1)C(=O)N[C@@H](CS)C(O)=O,9.61,16:0:11,carboxylic_acid:amine_primary:amine_secondary,L-Phenylalanyl-L-cysteine,[HL]/[L][H],0.1,25.0,16:0:11,carboxylic_acid:amine_primary:amine_secondary,16(carboxylic_acid) > 0(amine_primary) > 11(amine_secondary),amine_primary,carboxylic_acid(1.5~5.0); amine_primary(9.0~11.0); amine_secondary(9.5~11.5)
N[C@@H](Cc1ccccc1)C(=O)N[C@@H](CS)C(O)=O,7.25,16:0:11,carboxylic_acid:amine_primary:amine_secondary,L-Phenylalanyl-L-cysteine,[H₂L]/[HL][H],0.1,25.0,16:0:11,carboxylic_acid:amine_primary:amine_secondary,16(carboxylic_acid) > 0(amine_primary) > 11(amine_secondary),amine_primary,carboxylic_acid(1.5~5.0); amine_primary(9.0~11.0); amine_secondary(9.5~11.5)
N[C@@H](Cc1ccccc1)C(=O)N[C@@H](CS)C(O)=O,2.98,16:0:11,carboxylic_acid:amine_primary:amine_secondary,L-Phenylalanyl-L-cysteine,[H₃L]/[H₂L][H],0.1,25.0,16:0:11,carboxylic_acid:amine_primary:amine_secondary,16(carboxylic_acid) > 0(amine_primary) > 11(amine_secondary),carboxylic_acid,carboxylic_acid(1.5~5.0); amine_primary(9.0~11.0); amine_secondary(9.5~11.5)
CSCC[C@H](NC(=O)[C@@H](N)Cc1ccccc1)C(O)=O,7.27,18:9,carboxylic_acid:amine_primary,L-Phenylalanyl-L-methionine,[HL]/[L][H],0.1,25.0,18:9,carboxylic_acid:amine_primary,18(carboxylic_acid) > 9(amine_primary),amine_primary,carboxylic_acid(1.5~5.0); amine_primary(9.0~11.0)
CSCC[C@H](NC(=O)[C@@H](N)Cc1ccccc1)C(O)=O,3.24,18:9,carboxylic_acid:amine_primary,L-Phenylalanyl-L-methionine,[H₂L]/[HL][H],0.1,25.0,18:9,carboxylic_acid:amine_primary,18(carboxylic_acid) > 9(amine_primary),carboxylic_acid,carboxylic_acid(1.5~5.0); amine_primary(9.0~11.0)
N[C@@H](Cc1ccc(O)cc1)C(=O)N[C@@H](Cc2ccccc2)C(O)=O,10.09,22:0:12,carboxylic_acid:amine_primary:amine_secondary,L-Tyrosyl-L-phenylalanine,[HL]/[L][H],0.1,25.0,22:0:12,carboxylic_acid:amine_primary:amine_secondary,22(carboxylic_acid) > 0(amine_primary) > 12(amine_secondary),amine_primary,carboxylic_acid(1.5~5.0); amine_primary(9.0~11.0); amine_secondary(9.5~11.5)
N[C@@H](Cc1ccc(O)cc1)C(=O)N[C@@H](Cc2ccccc2)C(O)=O,7.36,22:0:12,carboxylic_acid:amine_primary:amine_secondary,L-Tyrosyl-L-phenylalanine,[H₂L]/[HL][H],0.1,25.0,22:0:12,carboxylic_acid:amine_primary:amine_secondary,22(carboxylic_acid) > 0(amine_primary) > 12(amine_secondary),amine_primary,carboxylic_acid(1.5~5.0); amine_primary(9.0~11.0); amine_secondary(9.5~11.5)
N[C@@H](Cc1ccc(O)cc1)C(=O)N[C@@H](Cc2ccccc2)C(O)=O,3.16,22:0:12,carboxylic_acid:amine_primary:amine_secondary,L-Tyrosyl-L-phenylalanine,[H₃L]/[H₂L][H],0.1,25.0,22:0:12,carboxylic_acid:amine_primary:amine_secondary,22(carboxylic_acid) > 0(amine_primary) > 12(amine_secondary),carboxylic_acid,carboxylic_acid(1.5~5.0); amine_primary(9.0~11.0); amine_secondary(9.5~11.5)
N[C@@H](Cc1ccc(O)cc1)C(=O)N[C@H](Cc2ccccc2)C(O)=O,9.99,22:0:12,carboxylic_acid:amine_primary:amine_secondary,L-Tyrosyl-D-phenylalanine,[HL]/[L][H],0.1,25.0,22:0:12,carboxylic_acid:amine_primary:amine_secondary,22(carboxylic_acid) > 0(amine_primary) > 12(amine_secondary),amine_primary,carboxylic_acid(1.5~5.0); amine_primary(9.0~11.0); amine_secondary(9.5~11.5)
N[C@@H](Cc1ccc(O)cc1)C(=O)N[C@H](Cc2ccccc2)C(O)=O,7.66,22:0:12,carboxylic_acid:amine_primary:amine_secondary,L-Tyrosyl-D-phenylalanine,[H₂L]/[HL][H],0.1,25.0,22:0:12,carboxylic_acid:amine_primary:amine_secondary,22(carboxylic_acid) > 0(amine_primary) > 12(amine_secondary),amine_primary,carboxylic_acid(1.5~5.0); amine_primary(9.0~11.0); amine_secondary(9.5~11.5)
N[C@@H](Cc1ccc(O)cc1)C(=O)N[C@H](Cc2ccccc2)C(O)=O,2.86,22:0:12,carboxylic_acid:amine_primary:amine_secondary,L-Tyrosyl-D-phenylalanine,[H₃L]/[H₂L][H],0.1,25.0,22:0:12,carboxylic_acid:amine_primary:amine_secondary,22(carboxylic_acid) > 0(amine_primary) > 12(amine_secondary),carboxylic_acid,carboxylic_acid(1.5~5.0); amine_primary(9.0~11.0); amine_secondary(9.5~11.5)
N[C@@H](Cc1ccc(O)cc1)C(=O)N[C@@H](Cc2ccc(O)cc2)C(O)=O,10.47,23:0:12:7,carboxylic_acid:amine_primary:amine_secondary:phenol,L-Tyrosyl-L-tyrosine,[HL]/[L][H],0.1,25.0,23:7:0:12,carboxylic_acid:phenol:amine_primary:amine_secondary,23(carboxylic_acid) > 7(phenol) > 0(amine_primary) > 12(amine_secondary),amine_secondary,carboxylic_acid(1.5~5.0); amine_primary(9.0~11.0); amine_secondary(9.5~11.5); phenol(8.0~11.0)
N[C@@H](Cc1ccc(O)cc1)C(=O)N[C@@H](Cc2ccc(O)cc2)C(O)=O,9.68,23:0:12:7,carboxylic_acid:amine_primary:amine_secondary:phenol,L-Tyrosyl-L-tyrosine,[H₂L]/[HL][H],0.1,25.0,23:7:0:12,carboxylic_acid:phenol:amine_primary:amine_secondary,23(carboxylic_acid) > 7(phenol) > 0(amine_primary) > 12(amine_secondary),phenol,carboxylic_acid(1.5~5.0); amine_primary(9.0~11.0); amine_secondary(9.5~11.5); phenol(8.0~11.0)
N[C@@H](Cc1ccc(O)cc1)C(=O)N[C@@H](Cc2ccc(O)cc2)C(O)=O,7.33,23:0:12:7,carboxylic_acid:amine_primary:amine_secondary:phenol,L-Tyrosyl-L-tyrosine,[H₃L]/[H₂L][H],0.1,25.0,23:7:0:12,carboxylic_acid:phenol:amine_primary:amine_secondary,23(carboxylic_acid) > 7(phenol) > 0(amine_primary) > 12(amine_secondary),phenol,carboxylic_acid(1.5~5.0); amine_primary(9.0~11.0); amine_secondary(9.5~11.5); phenol(8.0~11.0)
N[C@@H](Cc1ccc(O)cc1)C(=O)N[C@@H](Cc2ccc(O)cc2)C(O)=O,3.21,23:0:12:7,carboxylic_acid:amine_primary:amine_secondary:phenol,L-Tyrosyl-L-tyrosine,[H₄L]/[H₃L][H],0.1,25.0,23:7:0:12,carboxylic_acid:phenol:amine_primary:amine_secondary,23(carboxylic_acid) > 7(phenol) > 0(amine_primary) > 12(amine_secondary),carboxylic_acid,carboxylic_acid(1.5~5.0); amine_primary(9.0~11.0); amine_secondary(9.5~11.5); phenol(8.0~11.0)
N[C@@H](Cc1ccc(O)cc1)C(=O)N[C@H](Cc2ccc(O)cc2)C(O)=O,10.54,23:0:12:7,carboxylic_acid:amine_primary:amine_secondary:phenol,L-Tyrosyl-D-tyrosine,[HL]/[L][H],0.1,25.0,23:7:0:12,carboxylic_acid:phenol:amine_primary:amine_secondary,23(carboxylic_acid) > 7(phenol) > 0(amine_primary) > 12(amine_secondary),amine_secondary,carboxylic_acid(1.5~5.0); amine_primary(9.0~11.0); amine_secondary(9.5~11.5); phenol(8.0~11.0)