SMILES,pKa,Dissociable_Atoms,Functional_Group,Name,Dissociable_Atoms_Ordered,Functional_Group_Ordered,Dissociation_Order
NCCCN1CCCNCCCNCCC1,9.9,4,tertiary_amine,"1-(3-Aminopropyl)-1,5,9-triazacyclododecane",4,tertiary_amine,4(tertiary_amine)
NCCCN1CCCNCCCNCCC1,5.99,4,tertiary_amine,"1-(3-Aminopropyl)-1,5,9-triazacyclododecane",4,tertiary_amine,4(tertiary_amine)
NCCCN1CCCNCCCNCCC1,2.2,4,tertiary_amine,"1-(3-Aminopropyl)-1,5,9-triazacyclododecane",4,tertiary_amine,4(tertiary_amine)
SCCN1CCN(CCS)CCN(CCS)CC1,13.4,3,tertiary_amine,"1,4,7-Tris(2-mercaptoethyl)-1,4,7-triazacyclononane",3,tertiary_amine,3(tertiary_amine)
SCCN1CCN(CCS)CCN(CCS)CC1,10.97,3,tertiary_amine,"1,4,7-Tris(2-mercaptoethyl)-1,4,7-triazacyclononane",3,tertiary_amine,3(tertiary_amine)
SCCN1CCN(CCS)CCN(CCS)CC1,9.45,3,tertiary_amine,"1,4,7-Tris(2-mercaptoethyl)-1,4,7-triazacyclononane",3,tertiary_amine,3(tertiary_amine)
SCCN1CCN(CCS)CCN(CCS)CC1,8.26,3,tertiary_amine,"1,4,7-Tris(2-mercaptoethyl)-1,4,7-triazacyclononane",3,tertiary_amine,3(tertiary_amine)
SCCN1CCN(CCS)CCN(CCS)CC1,2.5,3,tertiary_amine,"1,4,7-Tris(2-mercaptoethyl)-1,4,7-triazacyclononane",3,tertiary_amine,3(tertiary_amine)
Cc1ccc(O)c(CN2CCN(CCN(CC2)Cc3nc(C)ccc3O)Cc4nc(C)ccc4O)n1,12.1,54,ring_nitrogen,"1,4,7-Tris(3-hydroxy-6-methyl-2-pyridylmethyl)-1,4,7-triazacyclononane",54,ring_nitrogen,54(ring_nitrogen)
Cc1ccc(O)c(CN2CCN(CCN(CC2)Cc3nc(C)ccc3O)Cc4nc(C)ccc4O)n1,10.86,54,ring_nitrogen,"1,4,7-Tris(3-hydroxy-6-methyl-2-pyridylmethyl)-1,4,7-triazacyclononane",54,ring_nitrogen,54(ring_nitrogen)
Cc1ccc(O)c(CN2CCN(CCN(CC2)Cc3nc(C)ccc3O)Cc4nc(C)ccc4O)n1,9.73,54,ring_nitrogen,"1,4,7-Tris(3-hydroxy-6-methyl-2-pyridylmethyl)-1,4,7-triazacyclononane",54,ring_nitrogen,54(ring_nitrogen)
Cc1ccc(O)c(CN2CCN(CCN(CC2)Cc3nc(C)ccc3O)Cc4nc(C)ccc4O)n1,7.0,54,ring_nitrogen,"1,4,7-Tris(3-hydroxy-6-methyl-2-pyridylmethyl)-1,4,7-triazacyclononane",54,ring_nitrogen,54(ring_nitrogen)
Cc1ccc(O)c(CN2CCN(CCN(CC2)Cc3nc(C)ccc3O)Cc4nc(C)ccc4O)n1,5.35,54,ring_nitrogen,"1,4,7-Tris(3-hydroxy-6-methyl-2-pyridylmethyl)-1,4,7-triazacyclononane",54,ring_nitrogen,54(ring_nitrogen)
Cc1ccc(O)c(CN2CCN(CCN(CC2)Cc3nc(C)ccc3O)Cc4nc(C)ccc4O)n1,4.28,54,ring_nitrogen,"1,4,7-Tris(3-hydroxy-6-methyl-2-pyridylmethyl)-1,4,7-triazacyclononane",54,ring_nitrogen,54(ring_nitrogen)
C1N2CN3CN1CN(C2)C3,4.89,11,tertiary_amine,"1,3,5,7-Tetraazatricyclo[3.3.1.1(3,7)]decane (Hexamethylenetetramine)",11,tertiary_amine,11(tertiary_amine)
C1N2CN3CN1CN(C2)C3,5.05,11,tertiary_amine,"1,3,5,7-Tetraazatricyclo[3.3.1.1(3,7)]decane (Hexamethylenetetramine)",11,tertiary_amine,11(tertiary_amine)
CN1CCN(C)CCN(C)CCN(C)CC1,10.07,1,tertiary_amine,"1,4,7,10-Tetramethyl-1,4,7,10-tetraazacyclododecane",1,tertiary_amine,1(tertiary_amine)
CN1CCN(C)CCN(C)CCN(C)CC1,8.95,1,tertiary_amine,"1,4,7,10-Tetramethyl-1,4,7,10-tetraazacyclododecane",1,tertiary_amine,1(tertiary_amine)
CN1CCN(C)CCN(C)CC(C)(C)CN(C)CC1,11.4,1,tertiary_amine,"1,4,7,10,12,12-Hexamethyl-1,4,7,10-tetraazacyclotridecane",1,tertiary_amine,1(tertiary_amine)
CN1CCN(C)CCN(C)CC(C)(C)CN(C)CC1,7.95,1,tertiary_amine,"1,4,7,10,12,12-Hexamethyl-1,4,7,10-tetraazacyclotridecane",1,tertiary_amine,1(tertiary_amine)
CN1CCCNCCNCCCNCC1,11.25,1,tertiary_amine,"1-Methyl-1,4,8,11-tetraazacyclotetradecane",1,tertiary_amine,1(tertiary_amine)
CN1CCCNCCNCCCNCC1,10.2,1,tertiary_amine,"1-Methyl-1,4,8,11-tetraazacyclotetradecane",1,tertiary_amine,1(tertiary_amine)
CN1CCCNCCNCCCNCC1,2.6,1,tertiary_amine,"1-Methyl-1,4,8,11-tetraazacyclotetradecane",1,tertiary_amine,1(tertiary_amine)
CN1CCCNCCNCCCNCC1,2.2,1,tertiary_amine,"1-Methyl-1,4,8,11-tetraazacyclotetradecane",1,tertiary_amine,1(tertiary_amine)
CN1CCCN(C)CCNCCCNCC1,10.75,1,tertiary_amine,"4,8-Dimethyl-1,4,8,11-tetraazacyclotetradecane",1,tertiary_amine,1(tertiary_amine)
CN1CCCN(C)CCNCCCNCC1,9.75,1,tertiary_amine,"4,8-Dimethyl-1,4,8,11-tetraazacyclotetradecane",1,tertiary_amine,1(tertiary_amine)
CN1CCCN(C)CCNCCCNCC1,2.9,1,tertiary_amine,"4,8-Dimethyl-1,4,8,11-tetraazacyclotetradecane",1,tertiary_amine,1(tertiary_amine)
CN1CCCN(C)CCNCCCNCC1,2.2,1,tertiary_amine,"4,8-Dimethyl-1,4,8,11-tetraazacyclotetradecane",1,tertiary_amine,1(tertiary_amine)
CN1CCCN(C)CCN(C)CCCN(C)CC1,9.36,1,tertiary_amine,"1,4,8,11-Tetramethyl-1,4,8,11-tetraazacyclotetradecane",1,tertiary_amine,1(tertiary_amine)
CN1CCCN(C)CCN(C)CCCN(C)CC1,9.7,1,tertiary_amine,"1,4,8,11-Tetramethyl-1,4,8,11-tetraazacyclotetradecane",1,tertiary_amine,1(tertiary_amine)
CN1CCCN(C)CCN(C)CCCN(C)CC1,9.02,1,tertiary_amine,"1,4,8,11-Tetramethyl-1,4,8,11-tetraazacyclotetradecane",1,tertiary_amine,1(tertiary_amine)
CN1CCCN(C)CCN(C)CCCN(C)CC1,9.31,1,tertiary_amine,"1,4,8,11-Tetramethyl-1,4,8,11-tetraazacyclotetradecane",1,tertiary_amine,1(tertiary_amine)
CN1CCCN(C)CCN(C)CCCN(C)CC1,2.54,1,tertiary_amine,"1,4,8,11-Tetramethyl-1,4,8,11-tetraazacyclotetradecane",1,tertiary_amine,1(tertiary_amine)
CN1CCCN(C)CCN(C)CCCN(C)CC1,3.09,1,tertiary_amine,"1,4,8,11-Tetramethyl-1,4,8,11-tetraazacyclotetradecane",1,tertiary_amine,1(tertiary_amine)
CN1CCCN(C)CCN(C)CCCN(C)CC1,2.25,1,tertiary_amine,"1,4,8,11-Tetramethyl-1,4,8,11-tetraazacyclotetradecane",1,tertiary_amine,1(tertiary_amine)
CN1CCCN(C)CCN(C)CCCN(C)CC1,2.64,1,tertiary_amine,"1,4,8,11-Tetramethyl-1,4,8,11-tetraazacyclotetradecane",1,tertiary_amine,1(tertiary_amine)
CN1CCN2CCNCCN(CC1)CCN(C)CC2,12.5,1,tertiary_amine,"4,10-Dimethyl-1,4,7,10,15-pentaazabicyclo[5.5.5]heptadecane",1,tertiary_amine,1(tertiary_amine)
CN1CCN2CCNCCN(CC1)CCN(C)CC2,9.05,1,tertiary_amine,"4,10-Dimethyl-1,4,7,10,15-pentaazabicyclo[5.5.5]heptadecane",1,tertiary_amine,1(tertiary_amine)
CN1CCN2CCN(C)CCN(CC1)CCN(C)CC2,11.8,1,tertiary_amine,"4,10,15-Trimethyl-1,4,7,10,15-pentaazabicyclo[5.5.5]heptadecane",1,tertiary_amine,1(tertiary_amine)
CN1CCN2CCN(C)CCN(CC1)CCN(C)CC2,10.0,1,tertiary_amine,"4,10,15-Trimethyl-1,4,7,10,15-pentaazabicyclo[5.5.5]heptadecane",1,tertiary_amine,1(tertiary_amine)
CN1CCN2CCCNCCCN(CC1)CCN(C)CC2,8.41,1,tertiary_amine,"12,17-Dimethyl-1,5,9,12,17-pentaazabicyclo[7.5.5]nonadecane",1,tertiary_amine,1(tertiary_amine)
CN1CCCN2CCN(C)CCN(CCC1)CCN(C)CC2,11.83,1,tertiary_amine,"5,12,17-Trimethyl-1,5,9,12,17-pentaazabicyclo[7.5.5]nonadecane",1,tertiary_amine,1(tertiary_amine)
CN1CCCN2CCN(C)CCN(CCC1)CCN(C)CC2,9.53,1,tertiary_amine,"5,12,17-Trimethyl-1,5,9,12,17-pentaazabicyclo[7.5.5]nonadecane",1,tertiary_amine,1(tertiary_amine)
CN1CCCN2CCN(C)CCN(CCC1)CCN(C)CC2,3.43,1,tertiary_amine,"5,12,17-Trimethyl-1,5,9,12,17-pentaazabicyclo[7.5.5]nonadecane",1,tertiary_amine,1(tertiary_amine)
CN1CCNCCN(C)CCN(C)CCN(C)CCNCC1,9.75,1,tertiary_amine,"1,4,7,13-Tetramethyl-1,4,7,10,13,16-hexaazacyclooctadecane",1,tertiary_amine,1(tertiary_amine)
CN1CCNCCN(C)CCN(C)CCN(C)CCNCC1,9.11,1,tertiary_amine,"1,4,7,13-Tetramethyl-1,4,7,10,13,16-hexaazacyclooctadecane",1,tertiary_amine,1(tertiary_amine)
CN1CCNCCN(C)CCN(C)CCN(C)CCNCC1,7.53,1,tertiary_amine,"1,4,7,13-Tetramethyl-1,4,7,10,13,16-hexaazacyclooctadecane",1,tertiary_amine,1(tertiary_amine)
CN1CCNCCN(C)CCN(C)CCN(C)CCNCC1,2.59,1,tertiary_amine,"1,4,7,13-Tetramethyl-1,4,7,10,13,16-hexaazacyclooctadecane",1,tertiary_amine,1(tertiary_amine)
O=C1CCNCCNC(=O)CC(=O)NCCN1,8.26,4,amine_secondary,"5,7,14-Trioxo-1,4,8,11-tetraazacyclotetradecane",4,amine_secondary,4(amine_secondary)
O=C1CCNCCNC(=O)CC(=O)NCCN1,7.95,4,amine_secondary,"5,7,14-Trioxo-1,4,8,11-tetraazacyclotetradecane",4,amine_secondary,4(amine_secondary)
C1CSCN1,6.54,4,amine_secondary,"1,3-Thiazolidine (1-Thia-3-azacyclopentane)",4,amine_secondary,4(amine_secondary)
CN1CCSCCN(C)CCSCC1,9.39,8,tertiary_amine,"N,N'-Dimethyl-1,7-dithia-4,10-diazacyclododecane",8,tertiary_amine,8(tertiary_amine)
CN1CCSCCN(C)CCSCC1,6.03,8,tertiary_amine,"N,N'-Dimethyl-1,7-dithia-4,10-diazacyclododecane",8,tertiary_amine,8(tertiary_amine)
CN1CCN2CCCSCCCN(CC1)CCN(C)CC2,11.91,1,tertiary_amine,"12,17-Dimethyl-5-thia-1,9,12,17-tetraazabicyclo[7.5.5]nonadecane",1,tertiary_amine,1(tertiary_amine)
CN1CCN2CCCSCCCN(CC1)CCN(C)CC2,8.78,1,tertiary_amine,"12,17-Dimethyl-5-thia-1,9,12,17-tetraazabicyclo[7.5.5]nonadecane",1,tertiary_amine,1(tertiary_amine)
OC(=O)c1[nH]ccc1,4.29,4,amine_secondary,Pyrrole-2-carboxylic acid (Azole-2-carboxylic acid),4,amine_secondary,4(amine_secondary)
OC(=O)c1[nH]ccc1,4.45,4,amine_secondary,Pyrrole-2-carboxylic acid (Azole-2-carboxylic acid),4,amine_secondary,4(amine_secondary)
CNCc1[nH]cc(c1)[S](O)(=O)=O,9.58,4,amine_secondary,2-(Methylaminomethyl)pyrrole-4-sulfonic acid,4,amine_secondary,4(amine_secondary)
COC(=O)[C@@H](N)Cc1c[nH]c2ccccc12,7.3,9,amine_secondary,L-2-Amino-3-(3-indolyl)propanoic acid methyl ester (Tryptophan methyl ester),9,amine_secondary,9(amine_secondary)
COC(=O)[C@@H](N)Cc1c[nH]c2ccccc12,7.18,9,amine_secondary,L-2-Amino-3-(3-indolyl)propanoic acid methyl ester (Tryptophan methyl ester),9,amine_secondary,9(amine_secondary)
Cc1noc(N)c1C,1.3,5,aniline,"5-Amino-3,4-dimethyl-1,2-oxazole",5,aniline,5(aniline)
s1ccnc1,2.8,0,thiazole_sulfur,"1,3-Thiazole",0,thiazole_sulfur,0(thiazole_sulfur)
Cc1cscn1,3.13,6,heterocyclic_nitrogen,"4-Methyl-1,3-thiazole",6,heterocyclic_nitrogen,6(heterocyclic_nitrogen)
Cc1scc(C)n1,4.02,9,ring_nitrogen,"2,4-Dimethyl-1,3-thiazole",9,ring_nitrogen,9(ring_nitrogen)
Nc1sccn1,5.57,6,heterocyclic_nitrogen,"2-Amino-1,3-thiazole",6,heterocyclic_nitrogen,6(heterocyclic_nitrogen)
Cc1csc(N)n1,5.95,9,ring_nitrogen,"2-Amino-4-methyl-1,3-thiazole",9,ring_nitrogen,9(ring_nitrogen)
[nH]1cccn1,2.58,8,heterocyclic_nitrogen,"1,2-Diazole (Pyrazole)",8,heterocyclic_nitrogen,8(heterocyclic_nitrogen)
[nH]1cccn1,2.56,8,heterocyclic_nitrogen,"1,2-Diazole (Pyrazole)",8,heterocyclic_nitrogen,8(heterocyclic_nitrogen)
[nH]1cccn1,2.78,8,heterocyclic_nitrogen,"1,2-Diazole (Pyrazole)",8,heterocyclic_nitrogen,8(heterocyclic_nitrogen)
[nH]1cccn1,2.61,8,heterocyclic_nitrogen,"1,2-Diazole (Pyrazole)",8,heterocyclic_nitrogen,8(heterocyclic_nitrogen)
Cn1cccn1,2.04,1,heterocyclic_nitrogen,1-Methylpyrazole,1,heterocyclic_nitrogen,1(heterocyclic_nitrogen)
Cc1cc[nH]n1,3.44,9,ring_nitrogen,3-Methylpyrazole,9,ring_nitrogen,9(ring_nitrogen)
Cc1c[nH]nc1,3.06,3,amine_secondary,4-Methylpyrazole,3,amine_secondary,3(amine_secondary)
Cc1[nH]nc(C)c1,4.21,2,amine_secondary,"3,5-Dimethylpyrazole",2,amine_secondary,2(amine_secondary)
Cn1cc(C)c(C)n1,3.56,1,heterocyclic_nitrogen,"1,3,4-Trimethylpyrazole",1,heterocyclic_nitrogen,1(heterocyclic_nitrogen)
Cn1nc(C)cc1C,3.96,1,heterocyclic_nitrogen,"1,3,5-Trimethylpyrazole",1,heterocyclic_nitrogen,1(heterocyclic_nitrogen)
Cn1ncc(C)c1C,3.58,1,heterocyclic_nitrogen,"1,4,5-Trimethylpyrazole",1,heterocyclic_nitrogen,1(heterocyclic_nitrogen)
Cc1[nH]nc(C)c1C,4.82,2,amine_secondary,"3,4,5-Trimethylpyrazole",2,amine_secondary,2(amine_secondary)
Cn1nc(C)c(C)c1C,4.48,1,heterocyclic_nitrogen,"1,3,4,5-Tetramethylpyrazole",1,heterocyclic_nitrogen,1(heterocyclic_nitrogen)
[nH]1ncc2ccccc12,1.1,0,amine_secondary,"1H-Benzo-1,2-diazole (Indazole)",0,amine_secondary,0(amine_secondary)
Cn1ncc2ccccc12,0.4,1,heterocyclic_nitrogen,1-Methylindazole,1,heterocyclic_nitrogen,1(heterocyclic_nitrogen)
Cn1cc2ccccc2n1,2.0,1,heterocyclic_nitrogen,2-Methylindazole,1,heterocyclic_nitrogen,1(heterocyclic_nitrogen)
Nc1cc[nH]n1,3.95,9,ring_nitrogen,3-Aminopyrazole,9,ring_nitrogen,9(ring_nitrogen)
CN1N(C(=O)C=C1C)c2ccccc2,1.5,3,tertiary_amine,"1,5-Dimethyl-2-phenylpyrazol-3-one (Antipyrine)",3,tertiary_amine,3(tertiary_amine)
CN1N(c2ccccc2)C(=O)C(=C1C)O,1.5,3,tertiary_amine,"4-Hydroxy-1,5-dimethyl-2-phenylpyrazol-3-one (4-Hydroxyantipyrine)",3,tertiary_amine,3(tertiary_amine)
CN1N(C(=O)C(=C1C)NC(C)=O)c2ccccc2,0.5,3,tertiary_amine,"4-Acetamido-1,5-dimethyl-2-phenylpyrazol-3-one (4-Acetamidoantipyrine)",3,tertiary_amine,3(tertiary_amine)
CN1N(c2ccccc2)C(=O)C(=C1C)N,4.18,3,tertiary_amine,"4-Amino-1,5-dimethyl-2-phenylpyrazol-3-one (4-Aminoantipyrine)",3,tertiary_amine,3(tertiary_amine)
CN1N(c2ccccc2)C(=O)C(=C1C)N,4.29,3,tertiary_amine,"4-Amino-1,5-dimethyl-2-phenylpyrazol-3-one (4-Aminoantipyrine)",3,tertiary_amine,3(tertiary_amine)
CN(C)C1=C(C)N(C)N(c2ccccc2)C1=O,4.94,1,tertiary_amine,"4-Dimethylamino-1,5-dimethyl-2-phenylpyrazol-3-one (Pyramidone) (Aminopyrine)",1,tertiary_amine,1(tertiary_amine)
CN(C)C1=C(C)N(C)N(c2ccccc2)C1=O,5.06,1,tertiary_amine,"4-Dimethylamino-1,5-dimethyl-2-phenylpyrazol-3-one (Pyramidone) (Aminopyrine)",1,tertiary_amine,1(tertiary_amine)
Cc1sc(C)nn1,0.8,9,ring_nitrogen,"2,5-Dimethyl-1,3,4-thiadiazole",9,ring_nitrogen,9(ring_nitrogen)
Nc1scnn1,2.78,6,pyridine_nitrogen,"2-Amino-1,3,4-thiadiazole",6,pyridine_nitrogen,6(pyridine_nitrogen)
Cc1sc(N)nn1,3.2,9,ring_nitrogen,"2-Amino-5-methyl-1,3,4-thiadiazole",9,ring_nitrogen,9(ring_nitrogen)
CCc1sc(N)nn1,3.35,10,ring_nitrogen,"2-Amino-5-ethyl-1,3,4-thiadiazole",10,ring_nitrogen,10(ring_nitrogen)
CCNc1scnn1,3.01,8,pyridine_nitrogen,"2-Ethylamino-1,3,4-thiadiazole",8,pyridine_nitrogen,8(pyridine_nitrogen)
[nH]1ccnc1,7.0,0,amine_secondary,"1,3-Diazole (Imidazole)",0,amine_secondary,0(amine_secondary)
[nH]1ccnc1,6.77,0,amine_secondary,"1,3-Diazole (Imidazole)",0,amine_secondary,0(amine_secondary)
[nH]1ccnc1,7.15,0,amine_secondary,"1,3-Diazole (Imidazole)",0,amine_secondary,0(amine_secondary)
[nH]1ccnc1,7.25,0,amine_secondary,"1,3-Diazole (Imidazole)",0,amine_secondary,0(amine_secondary)
[nH]1ccnc1,7.58,0,amine_secondary,"1,3-Diazole (Imidazole)",0,amine_secondary,0(amine_secondary)
[nH]1ccnc1,7.64,0,amine_secondary,"1,3-Diazole (Imidazole)",0,amine_secondary,0(amine_secondary)
[nH]1ccnc1,7.9,0,amine_secondary,"1,3-Diazole (Imidazole)",0,amine_secondary,0(amine_secondary)
[nH]1ccnc1,8.18,0,amine_secondary,"1,3-Diazole (Imidazole)",0,amine_secondary,0(amine_secondary)
[nH]1ccnc1,8.12,0,amine_secondary,"1,3-Diazole (Imidazole)",0,amine_secondary,0(amine_secondary)
[nH]1ccnc1,7.334,0,amine_secondary,"1,3-Diazole (Imidazole)",0,amine_secondary,0(amine_secondary)
[nH]1ccnc1,6.993,0,amine_secondary,"1,3-Diazole (Imidazole)",0,amine_secondary,0(amine_secondary)
[nH]1ccnc1,6.685,0,amine_secondary,"1,3-Diazole (Imidazole)",0,amine_secondary,0(amine_secondary)
Cn1ccnc1,7.1,1,imidazole_nitrogen,1-Methylimidazole,1,imidazole_nitrogen,1(imidazole_nitrogen)
Cn1ccnc1,7.2,1,imidazole_nitrogen,1-Methylimidazole,1,imidazole_nitrogen,1(imidazole_nitrogen)
Cn1ccnc1,7.31,1,imidazole_nitrogen,1-Methylimidazole,1,imidazole_nitrogen,1(imidazole_nitrogen)
CCn1ccnc1,7.21,2,imidazole_nitrogen,1-Ethylimidazole,2,imidazole_nitrogen,2(imidazole_nitrogen)
CCCn1ccnc1,7.22,3,imidazole_nitrogen,1-Propylimidazole,3,imidazole_nitrogen,3(imidazole_nitrogen)
CCCCn1ccnc1,7.22,4,imidazole_nitrogen,1-Butylimidazole,4,imidazole_nitrogen,4(imidazole_nitrogen)
Cc1[nH]ccn1,7.9,9,heterocyclic_nitrogen,2-Methylimidazole,9,heterocyclic_nitrogen,9(heterocyclic_nitrogen)
Cc1[nH]ccn1,8.04,9,heterocyclic_nitrogen,2-Methylimidazole,9,heterocyclic_nitrogen,9(heterocyclic_nitrogen)
Cc1[nH]ccn1,8.13,9,heterocyclic_nitrogen,2-Methylimidazole,9,heterocyclic_nitrogen,9(heterocyclic_nitrogen)
Cc1[nH]ccn1,7.86,9,heterocyclic_nitrogen,2-Methylimidazole,9,heterocyclic_nitrogen,9(heterocyclic_nitrogen)
CCc1[nH]ccn1,7.87,10,heterocyclic_nitrogen,2-Ethylimidazole,10,heterocyclic_nitrogen,10(heterocyclic_nitrogen)
CCc1[nH]ccn1,7.79,10,heterocyclic_nitrogen,2-Ethylimidazole,10,heterocyclic_nitrogen,10(heterocyclic_nitrogen)
CCc1[nH]ccn1,7.99,10,heterocyclic_nitrogen,2-Ethylimidazole,10,heterocyclic_nitrogen,10(heterocyclic_nitrogen)
CCc1[nH]ccn1,8.02,10,heterocyclic_nitrogen,2-Ethylimidazole,10,heterocyclic_nitrogen,10(heterocyclic_nitrogen)
CC(C)c1[nH]ccn1,7.77,13,heterocyclic_nitrogen,2-(2-Propyl)imidazole,13,heterocyclic_nitrogen,13(heterocyclic_nitrogen)
Cc1c[nH]cn1,7.55,9,heterocyclic_nitrogen,4-Methylimidazole,9,heterocyclic_nitrogen,9(heterocyclic_nitrogen)
Cc1c[nH]cn1,7.8,9,heterocyclic_nitrogen,4-Methylimidazole,9,heterocyclic_nitrogen,9(heterocyclic_nitrogen)
Cc1c[nH]cn1,7.54,9,heterocyclic_nitrogen,4-Methylimidazole,9,heterocyclic_nitrogen,9(heterocyclic_nitrogen)
Cn1ccnc1C,8.21,1,imidazole_nitrogen,"1,2-Dimethylimidazole",1,imidazole_nitrogen,1(imidazole_nitrogen)
Cc1[nH]cc(C)n1,8.4,12,ring_nitrogen,"2,4-Dimethylimidazole",12,ring_nitrogen,12(ring_nitrogen)
Cc1[nH]cc(C)n1,8.57,12,ring_nitrogen,"2,4-Dimethylimidazole",12,ring_nitrogen,12(ring_nitrogen)
Cc1[nH]cc(C)n1,8.37,12,ring_nitrogen,"2,4-Dimethylimidazole",12,ring_nitrogen,12(ring_nitrogen)
CCc1[nH]cc(C)n1,8.68,13,ring_nitrogen,2-Ethyl-4-methylimidazole,13,ring_nitrogen,13(ring_nitrogen)
CCc1[nH]cc(C)n1,8.52,13,ring_nitrogen,2-Ethyl-4-methylimidazole,13,ring_nitrogen,13(ring_nitrogen)
Cc1[nH]cnc1C,8.19,2,amine_secondary,"4,5-Dimethylimidazole",2,amine_secondary,2(amine_secondary)
CCc1[nH]cnc1CC,8.19,3,amine_secondary,"4,5-Diethylimidazole",3,amine_secondary,3(amine_secondary)
C=Cn1ccnc1,5.9,3,imidazole_nitrogen,1-Vinylimidazole,3,imidazole_nitrogen,3(imidazole_nitrogen)
Cc1nccn1C=C,7.09,2,imidazole_nitrogen,1-Vinyl-2-methylimidazole,2,imidazole_nitrogen,2(imidazole_nitrogen)
CCc1nccn1C=C,6.88,3,imidazole_nitrogen,1-Vinyl-2-ethylimidazole,3,imidazole_nitrogen,3(imidazole_nitrogen)
[nH]1ccnc1c2ccccc2,6.39,0,amine_secondary,2-Phenylimidazole,0,amine_secondary,0(amine_secondary)
[nH]1cnc(c1)c2ccccc2,6.0,0,amine_secondary,4-Phenylimidazole,0,amine_secondary,0(amine_secondary)
[nH]1cnc2ccccc12,5.53,0,amine_secondary,"Benzo-1,3-diazole (Benzimidazole)",0,amine_secondary,0(amine_secondary)
[nH]1cnc2ccccc12,5.74,0,amine_secondary,"Benzo-1,3-diazole (Benzimidazole)",0,amine_secondary,0(amine_secondary)
Cn1cnc2ccccc12,5.56,1,imidazole_nitrogen,1-Methylbenzimidazole,1,imidazole_nitrogen,1(imidazole_nitrogen)
Cn1cnc2ccccc12,5.76,1,imidazole_nitrogen,1-Methylbenzimidazole,1,imidazole_nitrogen,1(imidazole_nitrogen)
Cc1[nH]c2ccccc2n1,6.17,15,ring_nitrogen,2-Methylbenzimidazole,15,ring_nitrogen,15(ring_nitrogen)
Cc1[nH]c2ccccc2n1,6.52,15,ring_nitrogen,2-Methylbenzimidazole,15,ring_nitrogen,15(ring_nitrogen)
CCc1[nH]c2ccccc2n1,6.15,16,ring_nitrogen,2-Ethylbenzimidazole,16,ring_nitrogen,16(ring_nitrogen)
Cn1c(C)nc2ccccc12,6.62,1,heterocyclic_nitrogen,"1,2-Dimethylbenzimidazole",1,heterocyclic_nitrogen,1(heterocyclic_nitrogen)
OCc1[nH]ccn1,7.66,10,heterocyclic_nitrogen,2-(Hydroxymethyl)imidazole,10,heterocyclic_nitrogen,10(heterocyclic_nitrogen)
OCc1c[nH]cn1,6.46,10,heterocyclic_nitrogen,4-(Hydroxymethyl)imidazole,10,heterocyclic_nitrogen,10(heterocyclic_nitrogen)
OCc1c[nH]cn1,7.42,10,heterocyclic_nitrogen,4-(Hydroxymethyl)imidazole,10,heterocyclic_nitrogen,10(heterocyclic_nitrogen)
OCc1c[nH]cn1,6.38,10,heterocyclic_nitrogen,4-(Hydroxymethyl)imidazole,10,heterocyclic_nitrogen,10(heterocyclic_nitrogen)
OCCc1nccn1C=C,6.39,0,alcohol,1-Vinyl-2-(2-hydroxyethyl)imidazole,0,alcohol,0(alcohol)
OCCc1cn(C=C)cn1,6.05,13,heterocyclic_nitrogen,1-Vinyl-4-(2-hydroxyethyl)imidazole,13,heterocyclic_nitrogen,13(heterocyclic_nitrogen)
OCc1[nH]c2ccccc2n1,5.28,16,ring_nitrogen,2-(Hydroxymethyl)benzimidazole,16,ring_nitrogen,16(ring_nitrogen)
Cn1c(CO)nc2ccccc12,5.43,1,heterocyclic_nitrogen,1-Methyl-2-(hydroxymethyl)benzimidazole,1,heterocyclic_nitrogen,1(heterocyclic_nitrogen)
CC[C@H]1[C@H](COC1=O)Cc2cncn2C,7.12,27,heterocyclic_nitrogen,1-Methyl-5-(2-oxo-3-ethyl-4-oxolylmethyl)imidazole (Pilocarpine),27,heterocyclic_nitrogen,27(heterocyclic_nitrogen)
CC[C@H]1[C@H](COC1=O)Cc2cncn2C,7.36,27,heterocyclic_nitrogen,1-Methyl-5-(2-oxo-3-ethyl-4-oxolylmethyl)imidazole (Pilocarpine),27,heterocyclic_nitrogen,27(heterocyclic_nitrogen)
CC[C@H]1[C@H](COC1=O)Cc2cncn2C,6.98,27,heterocyclic_nitrogen,1-Methyl-5-(2-oxo-3-ethyl-4-oxolylmethyl)imidazole (Pilocarpine),27,heterocyclic_nitrogen,27(heterocyclic_nitrogen)
Sc1[nH]ccn1,11.21,9,heterocyclic_nitrogen,2-Mercaptoimidazole,9,heterocyclic_nitrogen,9(heterocyclic_nitrogen)
Cn1ccnc1S,11.58,1,imidazole_nitrogen,N-Methyl-2-mercaptoimidazole,1,imidazole_nitrogen,1(imidazole_nitrogen)
COC(=O)[C@H](Cc1c[nH]cn1)NC(=O)[C@@H]2CCC(=O)N2,6.34,22,heterocyclic_nitrogen,L-Pyroglutamyl-L-histidine methyl ester,22,heterocyclic_nitrogen,22(heterocyclic_nitrogen)