SMILES,pKa,Dissociable_Atoms,Functional_Group,Name,Equilibrium,Ionic,Temperature,Dissociable_Atoms_Ordered,Functional_Group_Ordered,Dissociation_Order,Dissociating_Group,Functional_Group_pKa_Ranges
NNC(=O)c1ccncc1,3.66,7,pyridine_nitrogen,Pyridine-4-carboxylic acid hydrazide (Isonicotinoylhydrazide),[H₂L]/[HL][H],0.5,25.0,7,pyridine_nitrogen,7(pyridine_nitrogen),Unknown,pyridine_nitrogen(Unknown)
NNC(=O)c1ccncc1,3.78,7,pyridine_nitrogen,Pyridine-4-carboxylic acid hydrazide (Isonicotinoylhydrazide),[H₂L]/[HL][H],1.0,25.0,7,pyridine_nitrogen,7(pyridine_nitrogen),Unknown,pyridine_nitrogen(Unknown)
NNC(=O)c1ccncc1,1.8,7,pyridine_nitrogen,Pyridine-4-carboxylic acid hydrazide (Isonicotinoylhydrazide),[H₃L]/[H₂L][H],0.15,37.0,7,pyridine_nitrogen,7(pyridine_nitrogen),Unknown,pyridine_nitrogen(Unknown)
NNC(=O)c1ccncc1,1.9,7,pyridine_nitrogen,Pyridine-4-carboxylic acid hydrazide (Isonicotinoylhydrazide),[H₃L]/[H₂L][H],0.5,25.0,7,pyridine_nitrogen,7(pyridine_nitrogen),Unknown,pyridine_nitrogen(Unknown)
NNC(=O)c1ccncc1,2.0,7,pyridine_nitrogen,Pyridine-4-carboxylic acid hydrazide (Isonicotinoylhydrazide),[H₃L]/[H₂L][H],1.0,25.0,7,pyridine_nitrogen,7(pyridine_nitrogen),Unknown,pyridine_nitrogen(Unknown)
NC(=O)C(=O)NCc1ccccn1,4.2,12,pyridine_nitrogen,N-(2-Pyridylmethyl)oxamide,[HL]/[L][H],0.5,20.0,12,pyridine_nitrogen,12(pyridine_nitrogen),Unknown,pyridine_nitrogen(Unknown)
ONC(=O)c1cccnc1,7.99,0:1,alcohol:amine_secondary,Pyridine-3-hydroxamic acid,[HL]/[L][H],0.5,25.0,1:0,amine_secondary:alcohol,1(amine_secondary) > 0(alcohol),amine_secondary,alcohol(15.0~18.0); amine_secondary(9.5~11.5)
ONC(=O)c1cccnc1,3.19,0:1,alcohol:amine_secondary,Pyridine-3-hydroxamic acid,[H₂L]/[HL][H],0.5,25.0,1:0,amine_secondary:alcohol,1(amine_secondary) > 0(alcohol),amine_secondary,alcohol(15.0~18.0); amine_secondary(9.5~11.5)
ON=Cc1ccccn1,9.99,8,pyridine_nitrogen,Pyridine-2-carboxaldehyde oxime,[HL]/[L][H],0.1,25.0,8,pyridine_nitrogen,8(pyridine_nitrogen),Unknown,pyridine_nitrogen(Unknown)
ON=Cc1ccccn1,9.89,8,pyridine_nitrogen,Pyridine-2-carboxaldehyde oxime,[HL]/[L][H],0.5,25.0,8,pyridine_nitrogen,8(pyridine_nitrogen),Unknown,pyridine_nitrogen(Unknown)
ON=Cc1ccccn1,9.92,8,pyridine_nitrogen,Pyridine-2-carboxaldehyde oxime,[HL]/[L][H],1.0,25.0,8,pyridine_nitrogen,8(pyridine_nitrogen),Unknown,pyridine_nitrogen(Unknown)
ON=Cc1ccccn1,10.18,8,pyridine_nitrogen,Pyridine-2-carboxaldehyde oxime,[HL]/[L][H],0.0,25.0,8,pyridine_nitrogen,8(pyridine_nitrogen),Unknown,pyridine_nitrogen(Unknown)
ON=Cc1ccccn1,3.56,8,pyridine_nitrogen,Pyridine-2-carboxaldehyde oxime,[H₂L]/[HL][H],0.1,25.0,8,pyridine_nitrogen,8(pyridine_nitrogen),Unknown,pyridine_nitrogen(Unknown)
ON=Cc1ccccn1,3.62,8,pyridine_nitrogen,Pyridine-2-carboxaldehyde oxime,[H₂L]/[HL][H],0.5,25.0,8,pyridine_nitrogen,8(pyridine_nitrogen),Unknown,pyridine_nitrogen(Unknown)
ON=Cc1ccccn1,3.87,8,pyridine_nitrogen,Pyridine-2-carboxaldehyde oxime,[H₂L]/[HL][H],1.0,25.0,8,pyridine_nitrogen,8(pyridine_nitrogen),Unknown,pyridine_nitrogen(Unknown)
ON=Cc1ccccn1,3.57,8,pyridine_nitrogen,Pyridine-2-carboxaldehyde oxime,[H₂L]/[HL][H],0.0,25.0,8,pyridine_nitrogen,8(pyridine_nitrogen),Unknown,pyridine_nitrogen(Unknown)
CC(=NO)c1ccccn1,10.87,9,pyridine_nitrogen,1-(2-Pyridyl)ethanone oxime,[HL]/[L][H],0.1,25.0,9,pyridine_nitrogen,9(pyridine_nitrogen),Unknown,pyridine_nitrogen(Unknown)
CC(=NO)c1ccccn1,3.97,9,pyridine_nitrogen,1-(2-Pyridyl)ethanone oxime,[H₂L]/[HL][H],0.1,25.0,9,pyridine_nitrogen,9(pyridine_nitrogen),Unknown,pyridine_nitrogen(Unknown)
Cc1cccc(C=NO)n1,9.94,13,ring_nitrogen,6-Methylpyridine-2-carboxaldehyde oxime,[HL]/[L][H],0.1,25.0,13,ring_nitrogen,13(ring_nitrogen),Unknown,ring_nitrogen(Unknown)
Cc1cccc(C=NO)n1,4.26,13,ring_nitrogen,6-Methylpyridine-2-carboxaldehyde oxime,[H₂L]/[HL][H],0.1,25.0,13,ring_nitrogen,13(ring_nitrogen),Unknown,ring_nitrogen(Unknown)
ON=Cc1cccnc1,10.15,7,pyridine_nitrogen,Pyridine-3-carboxaldehyde oxime,[HL]/[L][H],0.5,20.0,7,pyridine_nitrogen,7(pyridine_nitrogen),Unknown,pyridine_nitrogen(Unknown)
ON=Cc1cccnc1,10.32,7,pyridine_nitrogen,Pyridine-3-carboxaldehyde oxime,[HL]/[L][H],0.0,25.0,7,pyridine_nitrogen,7(pyridine_nitrogen),Unknown,pyridine_nitrogen(Unknown)
ON=Cc1cccnc1,10.37,7,pyridine_nitrogen,Pyridine-3-carboxaldehyde oxime,[HL]/[L][H],0.0,20.0,7,pyridine_nitrogen,7(pyridine_nitrogen),Unknown,pyridine_nitrogen(Unknown)
ON=Cc1cccnc1,4.14,7,pyridine_nitrogen,Pyridine-3-carboxaldehyde oxime,[H₂L]/[HL][H],0.5,20.0,7,pyridine_nitrogen,7(pyridine_nitrogen),Unknown,pyridine_nitrogen(Unknown)
ON=Cc1cccnc1,3.94,7,pyridine_nitrogen,Pyridine-3-carboxaldehyde oxime,[H₂L]/[HL][H],0.0,25.0,7,pyridine_nitrogen,7(pyridine_nitrogen),Unknown,pyridine_nitrogen(Unknown)
ON=Cc1cccnc1,3.94,7,pyridine_nitrogen,Pyridine-3-carboxaldehyde oxime,[H₂L]/[HL][H],0.0,20.0,7,pyridine_nitrogen,7(pyridine_nitrogen),Unknown,pyridine_nitrogen(Unknown)
ON=Cc1ccncc1,9.91,6,pyridine_nitrogen,Pyridine-4-carboxaldehyde oxime,[HL]/[L][H],0.0,25.0,6,pyridine_nitrogen,6(pyridine_nitrogen),Unknown,pyridine_nitrogen(Unknown)
ON=Cc1ccncc1,4.58,6,pyridine_nitrogen,Pyridine-4-carboxaldehyde oxime,[H₂L]/[HL][H],0.0,25.0,6,pyridine_nitrogen,6(pyridine_nitrogen),Unknown,pyridine_nitrogen(Unknown)
ON=Cc1cccc(C=NO)n1,10.54,16,ring_nitrogen,"Pyridine-2,6-dicarboxaldehyde dioxime",[HL]/[L][H],0.1,25.0,16,ring_nitrogen,16(ring_nitrogen),Unknown,ring_nitrogen(Unknown)
ON=Cc1cccc(C=NO)n1,10.21,16,ring_nitrogen,"Pyridine-2,6-dicarboxaldehyde dioxime",[HL]/[L][H],0.5,20.0,16,ring_nitrogen,16(ring_nitrogen),Unknown,ring_nitrogen(Unknown)
ON=Cc1cccc(C=NO)n1,10.88,16,ring_nitrogen,"Pyridine-2,6-dicarboxaldehyde dioxime",[HL]/[L][H],0.0,25.0,16,ring_nitrogen,16(ring_nitrogen),Unknown,ring_nitrogen(Unknown)
ON=Cc1cccc(C=NO)n1,9.91,16,ring_nitrogen,"Pyridine-2,6-dicarboxaldehyde dioxime",[H₂L]/[HL][H],0.1,25.0,16,ring_nitrogen,16(ring_nitrogen),Unknown,ring_nitrogen(Unknown)
ON=Cc1cccc(C=NO)n1,9.47,16,ring_nitrogen,"Pyridine-2,6-dicarboxaldehyde dioxime",[H₂L]/[HL][H],0.5,20.0,16,ring_nitrogen,16(ring_nitrogen),Unknown,ring_nitrogen(Unknown)
ON=Cc1cccc(C=NO)n1,10.08,16,ring_nitrogen,"Pyridine-2,6-dicarboxaldehyde dioxime",[H₂L]/[HL][H],0.0,25.0,16,ring_nitrogen,16(ring_nitrogen),Unknown,ring_nitrogen(Unknown)
ON=Cc1cccc(C=NO)n1,2.18,16,ring_nitrogen,"Pyridine-2,6-dicarboxaldehyde dioxime",[H₃L]/[H₂L][H],0.5,20.0,16,ring_nitrogen,16(ring_nitrogen),Unknown,ring_nitrogen(Unknown)
[O-][n+]1ccccc1S,4.43,7,thiol,2-Mercaptopyridine-N-oxide,[HL]/[L][H],0.1,25.0,7,thiol,7(thiol),thiol,thiol(8.0~11.0)
C[S](=O)(=O)NCc1ccccn1,11.22,11,pyridine_nitrogen,2-(Methylsulfonamidomethyl)pyridine,[HL]/[L][H],0.1,30.0,11,pyridine_nitrogen,11(pyridine_nitrogen),Unknown,pyridine_nitrogen(Unknown)
C[S](=O)(=O)NCc1ccccn1,4.3,11,pyridine_nitrogen,2-(Methylsulfonamidomethyl)pyridine,[H₂L]/[HL][H],0.1,30.0,11,pyridine_nitrogen,11(pyridine_nitrogen),Unknown,pyridine_nitrogen(Unknown)
CSCc1ccccn1,4.53,8,pyridine_nitrogen,2-(Methylthiomethyl)pyridine,[HL]/[L][H],0.1,25.0,8,pyridine_nitrogen,8(pyridine_nitrogen),Unknown,pyridine_nitrogen(Unknown)
CSCc1ccccn1,4.72,8,pyridine_nitrogen,2-(Methylthiomethyl)pyridine,[H₂L]/[HL][H],0.5,25.0,8,pyridine_nitrogen,8(pyridine_nitrogen),Unknown,pyridine_nitrogen(Unknown)
CCSCc1ccccn1,4.72,9,pyridine_nitrogen,2-[Ethylthiomethyl]pyridine,[HL]/[L][H],0.5,25.0,9,pyridine_nitrogen,9(pyridine_nitrogen),Unknown,pyridine_nitrogen(Unknown)
CSCCc1ccccn1,5.33,9,pyridine_nitrogen,2-[2-(Methylthio)ethyl]pyridine,[HL]/[L][H],0.5,25.0,9,pyridine_nitrogen,9(pyridine_nitrogen),Unknown,pyridine_nitrogen(Unknown)
CCSCCc1ccccn1,5.33,10,pyridine_nitrogen,2-[2-(Ethylthio)ethyl]pyridine,[HL]/[L][H],0.5,25.0,10,pyridine_nitrogen,10(pyridine_nitrogen),Unknown,pyridine_nitrogen(Unknown)
OCCSCc1ccccn1,4.61,10,pyridine_nitrogen,2-[2-Hydroxyethylthiomethyl]pyridine,[HL]/[L][H],0.5,25.0,10,pyridine_nitrogen,10(pyridine_nitrogen),Unknown,pyridine_nitrogen(Unknown)
OCCSCCc1ccccn1,5.28,11,pyridine_nitrogen,2-[2-(2-Hydroxyethylthio)ethyl]pyridine,[HL]/[L][H],0.5,25.0,11,pyridine_nitrogen,11(pyridine_nitrogen),Unknown,pyridine_nitrogen(Unknown)
NCCSCc1ccccn1,9.28,10,pyridine_nitrogen,2-[2-Aminoethylthiomethyl]pyridine,[HL]/[L][H],0.5,25.0,10,pyridine_nitrogen,10(pyridine_nitrogen),Unknown,pyridine_nitrogen(Unknown)
NCCSCc1ccccn1,4.21,10,pyridine_nitrogen,2-[2-Aminoethylthiomethyl]pyridine,[H₂L]/[HL][H],0.5,25.0,10,pyridine_nitrogen,10(pyridine_nitrogen),Unknown,pyridine_nitrogen(Unknown)
NCCCSCc1ccccn1,9.97,11,pyridine_nitrogen,2-[3-Aminopropylthiomethyl]pyridine,[HL]/[L][H],0.5,25.0,11,pyridine_nitrogen,11(pyridine_nitrogen),Unknown,pyridine_nitrogen(Unknown)
NCCCSCc1ccccn1,4.46,11,pyridine_nitrogen,2-[3-Aminopropylthiomethyl]pyridine,[H₂L]/[HL][H],0.5,25.0,11,pyridine_nitrogen,11(pyridine_nitrogen),Unknown,pyridine_nitrogen(Unknown)
NCCSCCc1ccccn1,9.35,11,pyridine_nitrogen,2-[2-(2-Aminoethylthio)ethyl]pyridine,[HL]/[L][H],0.5,25.0,11,pyridine_nitrogen,11(pyridine_nitrogen),Unknown,pyridine_nitrogen(Unknown)
NCCSCCc1ccccn1,5.12,11,pyridine_nitrogen,2-[2-(2-Aminoethylthio)ethyl]pyridine,[H₂L]/[HL][H],0.5,25.0,11,pyridine_nitrogen,11(pyridine_nitrogen),Unknown,pyridine_nitrogen(Unknown)
NCCCSCCc1ccccn1,10.03,12,pyridine_nitrogen,2-[2-(3-Aminopropylthio)ethyl]pyridine,[HL]/[L][H],0.5,25.0,12,pyridine_nitrogen,12(pyridine_nitrogen),Unknown,pyridine_nitrogen(Unknown)
NCCCSCCc1ccccn1,5.19,12,pyridine_nitrogen,2-[2-(3-Aminopropylthio)ethyl]pyridine,[H₂L]/[HL][H],0.5,25.0,12,pyridine_nitrogen,12(pyridine_nitrogen),Unknown,pyridine_nitrogen(Unknown)
s1cccc1c2ccccn2,3.69,11,pyridine_nitrogen,2-(2-Thienyl)pyridine,[HL]/[L][H],0.1,25.0,11,pyridine_nitrogen,11(pyridine_nitrogen),Unknown,pyridine_nitrogen(Unknown)
s1cccc1c2cccnc2,4.41,9,pyridine_nitrogen,3-(2-Thienyl)pyridine,[HL]/[L][H],0.1,25.0,9,pyridine_nitrogen,9(pyridine_nitrogen),Unknown,pyridine_nitrogen(Unknown)
s1cccc1c2ccncc2,5.48,8,pyridine_nitrogen,4-(2-Thienyl)pyridine,[HL]/[L][H],0.1,25.0,8,pyridine_nitrogen,8(pyridine_nitrogen),Unknown,pyridine_nitrogen(Unknown)
s1ccc(c1)c2ccccn2,4.67,10,pyridine_nitrogen,2-(3-Thienyl)pyridine,[HL]/[L][H],0.1,25.0,10,pyridine_nitrogen,10(pyridine_nitrogen),Unknown,pyridine_nitrogen(Unknown)
s1ccc(c1)c2cccnc2,4.81,9,pyridine_nitrogen,3-(3-Thienyl)pyridine,[HL]/[L][H],0.1,25.0,9,pyridine_nitrogen,9(pyridine_nitrogen),Unknown,pyridine_nitrogen(Unknown)
s1ccc(c1)c2ccncc2,5.6,8,pyridine_nitrogen,4-(3-Thienyl)pyridine,[HL]/[L][H],0.1,25.0,8,pyridine_nitrogen,8(pyridine_nitrogen),Unknown,pyridine_nitrogen(Unknown)
s1ccnc1c2ccccn2,2.17,10,pyridine_nitrogen,"2-(2-Pyridyl)-1,3-thiazole",[HL]/[L][H],0.1,25.0,10,pyridine_nitrogen,10(pyridine_nitrogen),Unknown,pyridine_nitrogen(Unknown)
s1ccnc1c2ccccn2,2.15,10,pyridine_nitrogen,"2-(2-Pyridyl)-1,3-thiazole",[HL]/[L][H],0.5,25.0,10,pyridine_nitrogen,10(pyridine_nitrogen),Unknown,pyridine_nitrogen(Unknown)
s1cnc(c1)c2ccccn2,4.05,10,pyridine_nitrogen,"4-(2-Pyridyl)-1,3-thiazole",[HL]/[L][H],0.1,25.0,10,pyridine_nitrogen,10(pyridine_nitrogen),Unknown,pyridine_nitrogen(Unknown)
s1cncc1c2ccccn2,2.68,10,pyridine_nitrogen,"5-(2-Pyridyl)-1,3-thiazole",[HL]/[L][H],0.1,25.0,10,pyridine_nitrogen,10(pyridine_nitrogen),Unknown,pyridine_nitrogen(Unknown)
Nc1ccccn1,6.78,6,pyridine_nitrogen,2-Aminopyridine,[HL]/[L][H],0.1,25.0,6,pyridine_nitrogen,6(pyridine_nitrogen),Unknown,pyridine_nitrogen(Unknown)
Nc1ccccn1,6.84,6,pyridine_nitrogen,2-Aminopyridine,[HL]/[L][H],0.5,25.0,6,pyridine_nitrogen,6(pyridine_nitrogen),Unknown,pyridine_nitrogen(Unknown)
Nc1ccccn1,6.93,6,pyridine_nitrogen,2-Aminopyridine,[HL]/[L][H],1.0,25.0,6,pyridine_nitrogen,6(pyridine_nitrogen),Unknown,pyridine_nitrogen(Unknown)
Nc1ccccn1,6.739,6,pyridine_nitrogen,2-Aminopyridine,[HL]/[L][H],0.0,25.0,6,pyridine_nitrogen,6(pyridine_nitrogen),Unknown,pyridine_nitrogen(Unknown)
Cc1cccnc1N,7.08,5,pyridine_nitrogen,2-Amino-3-methylpyridine,[HL]/[L][H],0.5,25.0,5,pyridine_nitrogen,5(pyridine_nitrogen),Unknown,pyridine_nitrogen(Unknown)
Cc1ccnc(N)c1,7.47,6,aniline,2-Amino-4-methylpyridine,[HL]/[L][H],0.5,25.0,6,aniline,6(aniline),Unknown,aniline(Unknown)
Cc1ccc(N)nc1,7.22,5,aniline,2-Amino-5-methylpyridine,[HL]/[L][H],0.5,25.0,5,aniline,5(aniline),Unknown,aniline(Unknown)
Nc1cccc[n+]1[O-],2.46,0,aniline,2-Aminopyridine 1-oxide,[HL]/[L][H],0.1,25.0,0,aniline,0(aniline),Unknown,aniline(Unknown)
Nc1cccc[n+]1[O-],2.48,0,aniline,2-Aminopyridine 1-oxide,[HL]/[L][H],0.5,25.0,0,aniline,0(aniline),Unknown,aniline(Unknown)
Nc1cccnc1,6.05,5,pyridine_nitrogen,3-Aminopyridine,[HL]/[L][H],0.1,25.0,5,pyridine_nitrogen,5(pyridine_nitrogen),Unknown,pyridine_nitrogen(Unknown)
Nc1cccnc1,6.16,5,pyridine_nitrogen,3-Aminopyridine,[HL]/[L][H],0.5,25.0,5,pyridine_nitrogen,5(pyridine_nitrogen),Unknown,pyridine_nitrogen(Unknown)
Nc1cccnc1,6.02,5,pyridine_nitrogen,3-Aminopyridine,[HL]/[L][H],0.0,25.0,5,pyridine_nitrogen,5(pyridine_nitrogen),Unknown,pyridine_nitrogen(Unknown)
Nc1ccncc1,9.17,4,pyridine_nitrogen,4-Aminopyridine,[HL]/[L][H],0.1,25.0,4,pyridine_nitrogen,4(pyridine_nitrogen),Unknown,pyridine_nitrogen(Unknown)
Nc1ccncc1,9.25,4,pyridine_nitrogen,4-Aminopyridine,[HL]/[L][H],0.5,25.0,4,pyridine_nitrogen,4(pyridine_nitrogen),Unknown,pyridine_nitrogen(Unknown)
Nc1ccncc1,9.33,4,pyridine_nitrogen,4-Aminopyridine,[HL]/[L][H],1.0,25.0,4,pyridine_nitrogen,4(pyridine_nitrogen),Unknown,pyridine_nitrogen(Unknown)
Nc1ccncc1,9.114,4,pyridine_nitrogen,4-Aminopyridine,[HL]/[L][H],0.0,25.0,4,pyridine_nitrogen,4(pyridine_nitrogen),Unknown,pyridine_nitrogen(Unknown)
NCc1ccccn1,8.65,7,pyridine_nitrogen,2-(Aminomethyl)pyridine (2-Picolylamine),[HL]/[L][H],0.1,25.0,7,pyridine_nitrogen,7(pyridine_nitrogen),Unknown,pyridine_nitrogen(Unknown)
NCc1ccccn1,8.79,7,pyridine_nitrogen,2-(Aminomethyl)pyridine (2-Picolylamine),[HL]/[L][H],0.5,25.0,7,pyridine_nitrogen,7(pyridine_nitrogen),Unknown,pyridine_nitrogen(Unknown)
NCc1ccccn1,8.91,7,pyridine_nitrogen,2-(Aminomethyl)pyridine (2-Picolylamine),[HL]/[L][H],1.0,25.0,7,pyridine_nitrogen,7(pyridine_nitrogen),Unknown,pyridine_nitrogen(Unknown)
NCc1ccccn1,8.65,7,pyridine_nitrogen,2-(Aminomethyl)pyridine (2-Picolylamine),[HL]/[L][H],0.0,25.0,7,pyridine_nitrogen,7(pyridine_nitrogen),Unknown,pyridine_nitrogen(Unknown)
NCc1ccccn1,2.03,7,pyridine_nitrogen,2-(Aminomethyl)pyridine (2-Picolylamine),[H₂L]/[HL][H],0.1,25.0,7,pyridine_nitrogen,7(pyridine_nitrogen),Unknown,pyridine_nitrogen(Unknown)
NCc1ccccn1,2.31,7,pyridine_nitrogen,2-(Aminomethyl)pyridine (2-Picolylamine),[H₂L]/[HL][H],0.5,25.0,7,pyridine_nitrogen,7(pyridine_nitrogen),Unknown,pyridine_nitrogen(Unknown)
NCc1ccccn1,2.46,7,pyridine_nitrogen,2-(Aminomethyl)pyridine (2-Picolylamine),[H₂L]/[HL][H],1.0,25.0,7,pyridine_nitrogen,7(pyridine_nitrogen),Unknown,pyridine_nitrogen(Unknown)
NCc1ccccn1,1.96,7,pyridine_nitrogen,2-(Aminomethyl)pyridine (2-Picolylamine),[H₂L]/[HL][H],0.0,25.0,7,pyridine_nitrogen,7(pyridine_nitrogen),Unknown,pyridine_nitrogen(Unknown)
Cc1cccc(CN)n1,8.9,11,ring_nitrogen,2-Aminomethyl-6-methylpyridine,[HL]/[L][H],0.1,20.0,11,ring_nitrogen,11(ring_nitrogen),Unknown,ring_nitrogen(Unknown)
Cc1cccc(CN)n1,3.08,11,ring_nitrogen,2-Aminomethyl-6-methylpyridine,[H₂L]/[HL][H],0.1,20.0,11,ring_nitrogen,11(ring_nitrogen),Unknown,ring_nitrogen(Unknown)
NCc1cccnc1,8.63,6,pyridine_nitrogen,3-(Aminomethyl)pyridine,[HL]/[L][H],0.1,25.0,6,pyridine_nitrogen,6(pyridine_nitrogen),Unknown,pyridine_nitrogen(Unknown)
NCc1cccnc1,9.12,6,pyridine_nitrogen,3-(Aminomethyl)pyridine,[HL]/[L][H],1.0,20.0,6,pyridine_nitrogen,6(pyridine_nitrogen),Unknown,pyridine_nitrogen(Unknown)
NCc1cccnc1,3.71,6,pyridine_nitrogen,3-(Aminomethyl)pyridine,[H₂L]/[HL][H],0.1,25.0,6,pyridine_nitrogen,6(pyridine_nitrogen),Unknown,pyridine_nitrogen(Unknown)
NCc1cccnc1,4.06,6,pyridine_nitrogen,3-(Aminomethyl)pyridine,[H₂L]/[HL][H],1.0,20.0,6,pyridine_nitrogen,6(pyridine_nitrogen),Unknown,pyridine_nitrogen(Unknown)
NCc1ccncc1,8.3,5,pyridine_nitrogen,4-(Aminomethyl)pyridine,[HL]/[L][H],0.1,25.0,5,pyridine_nitrogen,5(pyridine_nitrogen),Unknown,pyridine_nitrogen(Unknown)
NCc1ccncc1,4.05,5,pyridine_nitrogen,4-(Aminomethyl)pyridine,[H₂L]/[HL][H],0.1,25.0,5,pyridine_nitrogen,5(pyridine_nitrogen),Unknown,pyridine_nitrogen(Unknown)
NCCc1ccccn1,9.55,8,pyridine_nitrogen,2-(2-Aminoethyl)pyridine,[HL]/[L][H],0.1,25.0,8,pyridine_nitrogen,8(pyridine_nitrogen),Unknown,pyridine_nitrogen(Unknown)
NCCc1ccccn1,9.7,8,pyridine_nitrogen,2-(2-Aminoethyl)pyridine,[HL]/[L][H],0.5,25.0,8,pyridine_nitrogen,8(pyridine_nitrogen),Unknown,pyridine_nitrogen(Unknown)
NCCc1ccccn1,9.84,8,pyridine_nitrogen,2-(2-Aminoethyl)pyridine,[HL]/[L][H],1.0,25.0,8,pyridine_nitrogen,8(pyridine_nitrogen),Unknown,pyridine_nitrogen(Unknown)
NCCc1ccccn1,9.6,8,pyridine_nitrogen,2-(2-Aminoethyl)pyridine,[HL]/[L][H],0.0,25.0,8,pyridine_nitrogen,8(pyridine_nitrogen),Unknown,pyridine_nitrogen(Unknown)
NCCc1ccccn1,3.9,8,pyridine_nitrogen,2-(2-Aminoethyl)pyridine,[H₂L]/[HL][H],0.1,25.0,8,pyridine_nitrogen,8(pyridine_nitrogen),Unknown,pyridine_nitrogen(Unknown)
NCCc1ccccn1,4.16,8,pyridine_nitrogen,2-(2-Aminoethyl)pyridine,[H₂L]/[HL][H],0.5,25.0,8,pyridine_nitrogen,8(pyridine_nitrogen),Unknown,pyridine_nitrogen(Unknown)
NCCc1ccccn1,4.37,8,pyridine_nitrogen,2-(2-Aminoethyl)pyridine,[H₂L]/[HL][H],1.0,25.0,8,pyridine_nitrogen,8(pyridine_nitrogen),Unknown,pyridine_nitrogen(Unknown)
NCCc1ccccn1,3.75,8,pyridine_nitrogen,2-(2-Aminoethyl)pyridine,[H₂L]/[HL][H],0.0,25.0,8,pyridine_nitrogen,8(pyridine_nitrogen),Unknown,pyridine_nitrogen(Unknown)
NCCc1cccnc1,9.44,7,pyridine_nitrogen,3-(2-Aminoethyl)pyridine,[HL]/[L][H],0.1,25.0,7,pyridine_nitrogen,7(pyridine_nitrogen),Unknown,pyridine_nitrogen(Unknown)
NCCc1cccnc1,4.64,7,pyridine_nitrogen,3-(2-Aminoethyl)pyridine,[H₂L]/[HL][H],0.1,25.0,7,pyridine_nitrogen,7(pyridine_nitrogen),Unknown,pyridine_nitrogen(Unknown)
NCCc1ccncc1,9.37,6,pyridine_nitrogen,4-(2-Aminoethyl)pyridine,[HL]/[L][H],0.1,25.0,6,pyridine_nitrogen,6(pyridine_nitrogen),Unknown,pyridine_nitrogen(Unknown)
NCCc1ccncc1,4.98,6,pyridine_nitrogen,4-(2-Aminoethyl)pyridine,[H₂L]/[HL][H],0.1,25.0,6,pyridine_nitrogen,6(pyridine_nitrogen),Unknown,pyridine_nitrogen(Unknown)
NCCCc1ccccn1,10.1,9,pyridine_nitrogen,2-(3-Aminopropyl)pyridine,[HL]/[L][H],0.1,25.0,9,pyridine_nitrogen,9(pyridine_nitrogen),Unknown,pyridine_nitrogen(Unknown)
NCCCc1ccccn1,4.98,9,pyridine_nitrogen,2-(3-Aminopropyl)pyridine,[H₂L]/[HL][H],0.1,25.0,9,pyridine_nitrogen,9(pyridine_nitrogen),Unknown,pyridine_nitrogen(Unknown)
NCCCc1cccnc1,10.05,8,pyridine_nitrogen,3-(3-Aminopropyl)pyridine,[HL]/[L][H],0.1,25.0,8,pyridine_nitrogen,8(pyridine_nitrogen),Unknown,pyridine_nitrogen(Unknown)
NCCCc1cccnc1,5.19,8,pyridine_nitrogen,3-(3-Aminopropyl)pyridine,[H₂L]/[HL][H],0.1,25.0,8,pyridine_nitrogen,8(pyridine_nitrogen),Unknown,pyridine_nitrogen(Unknown)
NCCCc1ccncc1,9.98,7,pyridine_nitrogen,4-(3-Aminopropyl)pyridine,[HL]/[L][H],0.1,25.0,7,pyridine_nitrogen,7(pyridine_nitrogen),Unknown,pyridine_nitrogen(Unknown)
NCCCc1ccncc1,5.51,7,pyridine_nitrogen,4-(3-Aminopropyl)pyridine,[H₂L]/[HL][H],0.1,25.0,7,pyridine_nitrogen,7(pyridine_nitrogen),Unknown,pyridine_nitrogen(Unknown)
NCCCCc1ccccn1,10.3,10,pyridine_nitrogen,2-(4-Aminobutyl)pyridine,[HL]/[L][H],0.1,25.0,10,pyridine_nitrogen,10(pyridine_nitrogen),Unknown,pyridine_nitrogen(Unknown)
NCCCCc1ccccn1,5.56,10,pyridine_nitrogen,2-(4-Aminobutyl)pyridine,[H₂L]/[HL][H],0.1,25.0,10,pyridine_nitrogen,10(pyridine_nitrogen),Unknown,pyridine_nitrogen(Unknown)
NCCCCc1cccnc1,10.16,9,pyridine_nitrogen,3-(4-Aminobutyl)pyridine,[HL]/[L][H],0.1,25.0,9,pyridine_nitrogen,9(pyridine_nitrogen),Unknown,pyridine_nitrogen(Unknown)
NCCCCc1cccnc1,5.52,9,pyridine_nitrogen,3-(4-Aminobutyl)pyridine,[H₂L]/[HL][H],0.1,25.0,9,pyridine_nitrogen,9(pyridine_nitrogen),Unknown,pyridine_nitrogen(Unknown)
NCCCCc1ccncc1,10.18,8,pyridine_nitrogen,4-(4-Aminobutyl)pyridine,[HL]/[L][H],0.1,25.0,8,pyridine_nitrogen,8(pyridine_nitrogen),Unknown,pyridine_nitrogen(Unknown)
NCCCCc1ccncc1,5.81,8,pyridine_nitrogen,4-(4-Aminobutyl)pyridine,[H₂L]/[HL][H],0.1,25.0,8,pyridine_nitrogen,8(pyridine_nitrogen),Unknown,pyridine_nitrogen(Unknown)