SMILES,pKa,Dissociable_Atoms,Functional_Group,Name,Equilibrium,Ionic,Temperature,Dissociable_Atoms_Ordered,Functional_Group_Ordered,Dissociation_Order,Dissociating_Group,Functional_Group_pKa_Ranges
CNCCCNCCCNCCCNC,10.23,1:5:9:13,amine_secondary:amine_secondary:amine_secondary:amine_secondary,"2,6,10,14-Tetraazapentadecane",[H₂L]/[HL][H],0.5,25.0,1:5:9:13,amine_secondary:amine_secondary:amine_secondary:amine_secondary,1(amine_secondary) > 5(amine_secondary) > 9(amine_secondary) > 13(amine_secondary),amine_secondary,amine_secondary(9.5~11.5); amine_secondary(9.5~11.5); amine_secondary(9.5~11.5); amine_secondary(9.5~11.5)
CNCCCNCCCNCCCNC,8.89,1:5:9:13,amine_secondary:amine_secondary:amine_secondary:amine_secondary,"2,6,10,14-Tetraazapentadecane",[H₃L]/[H₂L][H],0.5,25.0,1:5:9:13,amine_secondary:amine_secondary:amine_secondary:amine_secondary,1(amine_secondary) > 5(amine_secondary) > 9(amine_secondary) > 13(amine_secondary),amine_secondary,amine_secondary(9.5~11.5); amine_secondary(9.5~11.5); amine_secondary(9.5~11.5); amine_secondary(9.5~11.5)
CNCCCNCCCNCCCNC,7.43,1:5:9:13,amine_secondary:amine_secondary:amine_secondary:amine_secondary,"2,6,10,14-Tetraazapentadecane",[H₄L]/[H₃L][H],0.5,25.0,1:5:9:13,amine_secondary:amine_secondary:amine_secondary:amine_secondary,1(amine_secondary) > 5(amine_secondary) > 9(amine_secondary) > 13(amine_secondary),amine_secondary,amine_secondary(9.5~11.5); amine_secondary(9.5~11.5); amine_secondary(9.5~11.5); amine_secondary(9.5~11.5)
NCCNCC(F)(F)CNCCN,9.86,0:3:9:12,amine_primary:amine_secondary:amine_secondary:amine_primary,"6,6-Difluoro-1,4,8,11-tetraazaundecane",[HL]/[L][H],0.1,25.0,0:12:3:9,amine_primary:amine_primary:amine_secondary:amine_secondary,0(amine_primary) > 12(amine_primary) > 3(amine_secondary) > 9(amine_secondary),amine_primary,amine_primary(9.0~11.0); amine_secondary(9.5~11.5); amine_secondary(9.5~11.5); amine_primary(9.0~11.0)
NCCNCC(F)(F)CNCCN,9.11,0:3:9:12,amine_primary:amine_secondary:amine_secondary:amine_primary,"6,6-Difluoro-1,4,8,11-tetraazaundecane",[H₂L]/[HL][H],0.1,25.0,0:12:3:9,amine_primary:amine_primary:amine_secondary:amine_secondary,0(amine_primary) > 12(amine_primary) > 3(amine_secondary) > 9(amine_secondary),amine_primary,amine_primary(9.0~11.0); amine_secondary(9.5~11.5); amine_secondary(9.5~11.5); amine_primary(9.0~11.0)
NCCNCC(F)(F)CNCCN,4.58,0:3:9:12,amine_primary:amine_secondary:amine_secondary:amine_primary,"6,6-Difluoro-1,4,8,11-tetraazaundecane",[H₃L]/[H₂L][H],0.1,25.0,0:12:3:9,amine_primary:amine_primary:amine_secondary:amine_secondary,0(amine_primary) > 12(amine_primary) > 3(amine_secondary) > 9(amine_secondary),amine_primary,amine_primary(9.0~11.0); amine_secondary(9.5~11.5); amine_secondary(9.5~11.5); amine_primary(9.0~11.0)
NCCNCC(F)(F)CNCCN,2.42,0:3:9:12,amine_primary:amine_secondary:amine_secondary:amine_primary,"6,6-Difluoro-1,4,8,11-tetraazaundecane",[H₄L]/[H₃L][H],0.1,25.0,0:12:3:9,amine_primary:amine_primary:amine_secondary:amine_secondary,0(amine_primary) > 12(amine_primary) > 3(amine_secondary) > 9(amine_secondary),amine_primary,amine_primary(9.0~11.0); amine_secondary(9.5~11.5); amine_secondary(9.5~11.5); amine_primary(9.0~11.0)
NCCNCCOCCNCCN,9.81,0:3:9:12,amine_primary:amine_secondary:amine_secondary:amine_primary,"7-Oxa-1,4,10,13-tetraazatridecane",[HL]/[L][H],0.1,25.0,0:12:3:9,amine_primary:amine_primary:amine_secondary:amine_secondary,0(amine_primary) > 12(amine_primary) > 3(amine_secondary) > 9(amine_secondary),amine_primary,amine_primary(9.0~11.0); amine_secondary(9.5~11.5); amine_secondary(9.5~11.5); amine_primary(9.0~11.0)
NCCNCCOCCNCCN,9.24,0:3:9:12,amine_primary:amine_secondary:amine_secondary:amine_primary,"7-Oxa-1,4,10,13-tetraazatridecane",[H₂L]/[HL][H],0.1,25.0,0:12:3:9,amine_primary:amine_primary:amine_secondary:amine_secondary,0(amine_primary) > 12(amine_primary) > 3(amine_secondary) > 9(amine_secondary),amine_primary,amine_primary(9.0~11.0); amine_secondary(9.5~11.5); amine_secondary(9.5~11.5); amine_primary(9.0~11.0)
NCCNCCOCCNCCN,6.89,0:3:9:12,amine_primary:amine_secondary:amine_secondary:amine_primary,"7-Oxa-1,4,10,13-tetraazatridecane",[H₃L]/[H₂L][H],0.1,25.0,0:12:3:9,amine_primary:amine_primary:amine_secondary:amine_secondary,0(amine_primary) > 12(amine_primary) > 3(amine_secondary) > 9(amine_secondary),amine_primary,amine_primary(9.0~11.0); amine_secondary(9.5~11.5); amine_secondary(9.5~11.5); amine_primary(9.0~11.0)
NCCNCCOCCNCCN,5.98,0:3:9:12,amine_primary:amine_secondary:amine_secondary:amine_primary,"7-Oxa-1,4,10,13-tetraazatridecane",[H₄L]/[H₃L][H],0.1,25.0,0:12:3:9,amine_primary:amine_primary:amine_secondary:amine_secondary,0(amine_primary) > 12(amine_primary) > 3(amine_secondary) > 9(amine_secondary),amine_primary,amine_primary(9.0~11.0); amine_secondary(9.5~11.5); amine_secondary(9.5~11.5); amine_primary(9.0~11.0)
NCCNCCSCCNCCN,9.78,0:3:9:12,amine_primary:amine_secondary:amine_secondary:amine_primary,"7-Thia-1,4,10,13-tetraazatridecane",[HL]/[L][H],0.1,25.0,0:12:3:9,amine_primary:amine_primary:amine_secondary:amine_secondary,0(amine_primary) > 12(amine_primary) > 3(amine_secondary) > 9(amine_secondary),amine_primary,amine_primary(9.0~11.0); amine_secondary(9.5~11.5); amine_secondary(9.5~11.5); amine_primary(9.0~11.0)
NCCNCCSCCNCCN,9.1,0:3:9:12,amine_primary:amine_secondary:amine_secondary:amine_primary,"7-Thia-1,4,10,13-tetraazatridecane",[H₂L]/[HL][H],0.1,25.0,0:12:3:9,amine_primary:amine_primary:amine_secondary:amine_secondary,0(amine_primary) > 12(amine_primary) > 3(amine_secondary) > 9(amine_secondary),amine_primary,amine_primary(9.0~11.0); amine_secondary(9.5~11.5); amine_secondary(9.5~11.5); amine_primary(9.0~11.0)
NCCNCCSCCNCCN,6.51,0:3:9:12,amine_primary:amine_secondary:amine_secondary:amine_primary,"7-Thia-1,4,10,13-tetraazatridecane",[H₃L]/[H₂L][H],0.1,25.0,0:12:3:9,amine_primary:amine_primary:amine_secondary:amine_secondary,0(amine_primary) > 12(amine_primary) > 3(amine_secondary) > 9(amine_secondary),amine_primary,amine_primary(9.0~11.0); amine_secondary(9.5~11.5); amine_secondary(9.5~11.5); amine_primary(9.0~11.0)
NCCNCCSCCNCCN,5.64,0:3:9:12,amine_primary:amine_secondary:amine_secondary:amine_primary,"7-Thia-1,4,10,13-tetraazatridecane",[H₄L]/[H₃L][H],0.1,25.0,0:12:3:9,amine_primary:amine_primary:amine_secondary:amine_secondary,0(amine_primary) > 12(amine_primary) > 3(amine_secondary) > 9(amine_secondary),amine_primary,amine_primary(9.0~11.0); amine_secondary(9.5~11.5); amine_secondary(9.5~11.5); amine_primary(9.0~11.0)
C1CNC1,11.29,2,amine_secondary,Trimethyleneimine (Azetidine)(Azacyclobutane),[HL]/[L][H],0.0,25.0,2,amine_secondary,2(amine_secondary),amine_secondary,amine_secondary(9.5~11.5)
C1CCNC1,11.3,3,amine_secondary,Tetramethyleneimine (Pyrrolidine)(Azacyclopentane),[HL]/[L][H],0.1,25.0,3,amine_secondary,3(amine_secondary),amine_secondary,amine_secondary(9.5~11.5)
C1CCNC1,11.48,3,amine_secondary,Tetramethyleneimine (Pyrrolidine)(Azacyclopentane),[HL]/[L][H],0.5,25.0,3,amine_secondary,3(amine_secondary),amine_secondary,amine_secondary(9.5~11.5)
C1CCNC1,11.807,3,amine_secondary,Tetramethyleneimine (Pyrrolidine)(Azacyclopentane),[HL]/[L][H],0.0,10.0,3,amine_secondary,3(amine_secondary),amine_secondary,amine_secondary(9.5~11.5)
C1CCNC1,11.305,3,amine_secondary,Tetramethyleneimine (Pyrrolidine)(Azacyclopentane),[HL]/[L][H],0.0,25.0,3,amine_secondary,3(amine_secondary),amine_secondary,amine_secondary(9.5~11.5)
C1CCNC1,10.845,3,amine_secondary,Tetramethyleneimine (Pyrrolidine)(Azacyclopentane),[HL]/[L][H],0.0,40.0,3,amine_secondary,3(amine_secondary),amine_secondary,amine_secondary(9.5~11.5)
CN1CCCC1,10.46,1,tertiary_amine,N-Methylpyrrolidine,[HL]/[L][H],0.0,25.0,1,tertiary_amine,1(tertiary_amine),Unknown,tertiary_amine(Unknown)
NCCN1CCCC1,9.74,3,tertiary_amine,N-(2-Aminoethyl)pyrrolidine,[HL]/[L][H],0.0,30.0,3,tertiary_amine,3(tertiary_amine),Unknown,tertiary_amine(Unknown)
NCCN1CCCC1,6.56,3,tertiary_amine,N-(2-Aminoethyl)pyrrolidine,[H₂L]/[HL][H],0.0,30.0,3,tertiary_amine,3(tertiary_amine),Unknown,tertiary_amine(Unknown)
C1CCNCC1,11.08,3,amine_secondary,Pentamethyleneimine (Piperidine)(Azacyclohexane),[HL]/[L][H],0.1,25.0,3,amine_secondary,3(amine_secondary),amine_secondary,amine_secondary(9.5~11.5)
C1CCNCC1,11.12,3,amine_secondary,Pentamethyleneimine (Piperidine)(Azacyclohexane),[HL]/[L][H],0.5,25.0,3,amine_secondary,3(amine_secondary),amine_secondary,amine_secondary(9.5~11.5)
C1CCNCC1,11.613,3,amine_secondary,Pentamethyleneimine (Piperidine)(Azacyclohexane),[HL]/[L][H],0.0,10.0,3,amine_secondary,3(amine_secondary),amine_secondary,amine_secondary(9.5~11.5)
C1CCNCC1,11.125,3,amine_secondary,Pentamethyleneimine (Piperidine)(Azacyclohexane),[HL]/[L][H],0.0,25.0,3,amine_secondary,3(amine_secondary),amine_secondary,amine_secondary(9.5~11.5)
C1CCNCC1,10.675,3,amine_secondary,Pentamethyleneimine (Piperidine)(Azacyclohexane),[HL]/[L][H],0.0,40.0,3,amine_secondary,3(amine_secondary),amine_secondary,amine_secondary(9.5~11.5)
CN1CCCCC1,10.02,1,tertiary_amine,N-Methylpiperidine,[HL]/[L][H],0.1,22.0,1,tertiary_amine,1(tertiary_amine),Unknown,tertiary_amine(Unknown)
CN1CCCCC1,10.18,1,tertiary_amine,N-Methylpiperidine,[HL]/[L][H],0.5,25.0,1,tertiary_amine,1(tertiary_amine),Unknown,tertiary_amine(Unknown)
CN1CCCCC1,10.08,1,tertiary_amine,N-Methylpiperidine,[HL]/[L][H],0.0,25.0,1,tertiary_amine,1(tertiary_amine),Unknown,tertiary_amine(Unknown)
CCN1CCCCC1,10.61,2,tertiary_amine,N-Ethylpiperidine,[HL]/[L][H],0.5,25.0,2,tertiary_amine,2(tertiary_amine),Unknown,tertiary_amine(Unknown)
CC1CCNCC1,11.08,4,amine_secondary,4-Methylpiperidine,[HL]/[L][H],0.5,25.0,4,amine_secondary,4(amine_secondary),amine_secondary,amine_secondary(9.5~11.5)
C1CCCNCCC1,11.1,4,amine_secondary,Heptamethyleneimine (Azacyclooctane),[HL]/[L][H],0.0,25.0,4,amine_secondary,4(amine_secondary),amine_secondary,amine_secondary(9.5~11.5)
NCCN1CCCCC1,9.89,3,tertiary_amine,N-(2-Aminoethyl)piperidine,[HL]/[L][H],0.0,30.0,3,tertiary_amine,3(tertiary_amine),Unknown,tertiary_amine(Unknown)
NCCN1CCCCC1,6.38,3,tertiary_amine,N-(2-Aminoethyl)piperidine,[H₂L]/[HL][H],0.0,30.0,3,tertiary_amine,3(tertiary_amine),Unknown,tertiary_amine(Unknown)
CN1CCC(S)CC1,10.35,1,tertiary_amine,4-Mercapto-N-methylpiperidine,[HL]/[L][H],0.1,25.0,1,tertiary_amine,1(tertiary_amine),Unknown,tertiary_amine(Unknown)
CN1CCC(S)CC1,8.33,1,tertiary_amine,4-Mercapto-N-methylpiperidine,[H₂L]/[HL][H],0.1,25.0,1,tertiary_amine,1(tertiary_amine),Unknown,tertiary_amine(Unknown)
C1CN2CCC1CC2,11.15,1,tertiary_amine,1-Azabicyclo[2.2.2]octane (Quinuclidine),[HL]/[L][H],0.0,25.0,1,tertiary_amine,1(tertiary_amine),Unknown,tertiary_amine(Unknown)
C1CNCCN1,9.74,2:5,amine_secondary:amine_secondary,"1,4-Diazacyclohexane (Perhydro-1,4-diazine)(Piperazine)",[HL]/[L][H],0.1,25.0,2:5,amine_secondary:amine_secondary,2(amine_secondary) > 5(amine_secondary),amine_secondary,amine_secondary(9.5~11.5); amine_secondary(9.5~11.5)
C1CNCCN1,9.86,2:5,amine_secondary:amine_secondary,"1,4-Diazacyclohexane (Perhydro-1,4-diazine)(Piperazine)",[HL]/[L][H],0.5,25.0,2:5,amine_secondary:amine_secondary,2(amine_secondary) > 5(amine_secondary),amine_secondary,amine_secondary(9.5~11.5); amine_secondary(9.5~11.5)
C1CNCCN1,10.01,2:5,amine_secondary:amine_secondary,"1,4-Diazacyclohexane (Perhydro-1,4-diazine)(Piperazine)",[HL]/[L][H],1.0,25.0,2:5,amine_secondary:amine_secondary,2(amine_secondary) > 5(amine_secondary),amine_secondary,amine_secondary(9.5~11.5); amine_secondary(9.5~11.5)
C1CNCCN1,10.126,2:5,amine_secondary:amine_secondary,"1,4-Diazacyclohexane (Perhydro-1,4-diazine)(Piperazine)",[HL]/[L][H],0.0,10.0,2:5,amine_secondary:amine_secondary,2(amine_secondary) > 5(amine_secondary),amine_secondary,amine_secondary(9.5~11.5); amine_secondary(9.5~11.5)
C1CNCCN1,9.731,2:5,amine_secondary:amine_secondary,"1,4-Diazacyclohexane (Perhydro-1,4-diazine)(Piperazine)",[HL]/[L][H],0.0,25.0,2:5,amine_secondary:amine_secondary,2(amine_secondary) > 5(amine_secondary),amine_secondary,amine_secondary(9.5~11.5); amine_secondary(9.5~11.5)
C1CNCCN1,9.367,2:5,amine_secondary:amine_secondary,"1,4-Diazacyclohexane (Perhydro-1,4-diazine)(Piperazine)",[HL]/[L][H],0.0,40.0,2:5,amine_secondary:amine_secondary,2(amine_secondary) > 5(amine_secondary),amine_secondary,amine_secondary(9.5~11.5); amine_secondary(9.5~11.5)
C1CNCCN1,5.64,2:5,amine_secondary:amine_secondary,"1,4-Diazacyclohexane (Perhydro-1,4-diazine)(Piperazine)",[H₂L]/[HL][H],0.1,25.0,2:5,amine_secondary:amine_secondary,2(amine_secondary) > 5(amine_secondary),amine_secondary,amine_secondary(9.5~11.5); amine_secondary(9.5~11.5)
C1CNCCN1,5.8,2:5,amine_secondary:amine_secondary,"1,4-Diazacyclohexane (Perhydro-1,4-diazine)(Piperazine)",[H₂L]/[HL][H],0.5,25.0,2:5,amine_secondary:amine_secondary,2(amine_secondary) > 5(amine_secondary),amine_secondary,amine_secondary(9.5~11.5); amine_secondary(9.5~11.5)
C1CNCCN1,6.04,2:5,amine_secondary:amine_secondary,"1,4-Diazacyclohexane (Perhydro-1,4-diazine)(Piperazine)",[H₂L]/[HL][H],1.0,25.0,2:5,amine_secondary:amine_secondary,2(amine_secondary) > 5(amine_secondary),amine_secondary,amine_secondary(9.5~11.5); amine_secondary(9.5~11.5)
C1CNCCN1,5.614,2:5,amine_secondary:amine_secondary,"1,4-Diazacyclohexane (Perhydro-1,4-diazine)(Piperazine)",[H₂L]/[HL][H],0.0,10.0,2:5,amine_secondary:amine_secondary,2(amine_secondary) > 5(amine_secondary),amine_secondary,amine_secondary(9.5~11.5); amine_secondary(9.5~11.5)
C1CNCCN1,5.333,2:5,amine_secondary:amine_secondary,"1,4-Diazacyclohexane (Perhydro-1,4-diazine)(Piperazine)",[H₂L]/[HL][H],0.0,25.0,2:5,amine_secondary:amine_secondary,2(amine_secondary) > 5(amine_secondary),amine_secondary,amine_secondary(9.5~11.5); amine_secondary(9.5~11.5)
C1CNCCN1,5.066,2:5,amine_secondary:amine_secondary,"1,4-Diazacyclohexane (Perhydro-1,4-diazine)(Piperazine)",[H₂L]/[HL][H],0.0,40.0,2:5,amine_secondary:amine_secondary,2(amine_secondary) > 5(amine_secondary),amine_secondary,amine_secondary(9.5~11.5); amine_secondary(9.5~11.5)
CN1CCNCC1,8.98,1,tertiary_amine,N-Methylpiperazine,[HL]/[L][H],0.1,25.0,1,tertiary_amine,1(tertiary_amine),Unknown,tertiary_amine(Unknown)
CN1CCNCC1,9.32,1,tertiary_amine,N-Methylpiperazine,[HL]/[L][H],1.0,25.0,1,tertiary_amine,1(tertiary_amine),Unknown,tertiary_amine(Unknown)
CN1CCNCC1,4.83,1,tertiary_amine,N-Methylpiperazine,[H₂L]/[HL][H],0.1,25.0,1,tertiary_amine,1(tertiary_amine),Unknown,tertiary_amine(Unknown)
CN1CCNCC1,5.2,1,tertiary_amine,N-Methylpiperazine,[H₂L]/[HL][H],1.0,25.0,1,tertiary_amine,1(tertiary_amine),Unknown,tertiary_amine(Unknown)
CN1CCN(C)CC1,8.13,1,tertiary_amine,"N,N'-Dimethylpiperazine",[HL]/[L][H],0.1,25.0,1,tertiary_amine,1(tertiary_amine),Unknown,tertiary_amine(Unknown)
CN1CCN(C)CC1,8.54,1,tertiary_amine,"N,N'-Dimethylpiperazine",[HL]/[L][H],1.0,25.0,1,tertiary_amine,1(tertiary_amine),Unknown,tertiary_amine(Unknown)
CN1CCN(C)CC1,4.18,1,tertiary_amine,"N,N'-Dimethylpiperazine",[H₂L]/[HL][H],0.1,25.0,1,tertiary_amine,1(tertiary_amine),Unknown,tertiary_amine(Unknown)
CN1CCN(C)CC1,4.63,1,tertiary_amine,"N,N'-Dimethylpiperazine",[H₂L]/[HL][H],1.0,25.0,1,tertiary_amine,1(tertiary_amine),Unknown,tertiary_amine(Unknown)
CC1CNCCN1,9.49,3:6,amine_secondary:amine_secondary,2-Methylpiperazine,[HL]/[L][H],0.1,25.0,3:6,amine_secondary:amine_secondary,3(amine_secondary) > 6(amine_secondary),amine_secondary,amine_secondary(9.5~11.5); amine_secondary(9.5~11.5)
CC1CNCCN1,5.51,3:6,amine_secondary:amine_secondary,2-Methylpiperazine,[H₂L]/[HL][H],0.1,25.0,3:6,amine_secondary:amine_secondary,3(amine_secondary) > 6(amine_secondary),amine_secondary,amine_secondary(9.5~11.5); amine_secondary(9.5~11.5)
C[C@H]1CN[C@@H](C)CN1,9.76,3:7,amine_secondary:amine_secondary,"cis-2,5-Dimethylpiperazine",[HL]/[L][H],0.1,25.0,3:7,amine_secondary:amine_secondary,3(amine_secondary) > 7(amine_secondary),amine_secondary,amine_secondary(9.5~11.5); amine_secondary(9.5~11.5)
C[C@H]1CN[C@@H](C)CN1,5.32,3:7,amine_secondary:amine_secondary,"cis-2,5-Dimethylpiperazine",[H₂L]/[HL][H],0.1,25.0,3:7,amine_secondary:amine_secondary,3(amine_secondary) > 7(amine_secondary),amine_secondary,amine_secondary(9.5~11.5); amine_secondary(9.5~11.5)
C[C@H]1CN[C@H](C)CN1,9.58,3:7,amine_secondary:amine_secondary,"trans-2,5-Dimethylpiperazine",[HL]/[L][H],0.1,25.0,3:7,amine_secondary:amine_secondary,3(amine_secondary) > 7(amine_secondary),amine_secondary,amine_secondary(9.5~11.5); amine_secondary(9.5~11.5)
C[C@H]1CN[C@H](C)CN1,5.37,3:7,amine_secondary:amine_secondary,"trans-2,5-Dimethylpiperazine",[H₂L]/[HL][H],0.1,25.0,3:7,amine_secondary:amine_secondary,3(amine_secondary) > 7(amine_secondary),amine_secondary,amine_secondary(9.5~11.5); amine_secondary(9.5~11.5)
CC1CNCC(C)N1,9.57,3:7,amine_secondary:amine_secondary,"2,6-Dimethylpiperazine",[HL]/[L][H],0.1,25.0,3:7,amine_secondary:amine_secondary,3(amine_secondary) > 7(amine_secondary),amine_secondary,amine_secondary(9.5~11.5); amine_secondary(9.5~11.5)
CC1CNCC(C)N1,5.4,3:7,amine_secondary:amine_secondary,"2,6-Dimethylpiperazine",[H₂L]/[HL][H],0.1,25.0,3:7,amine_secondary:amine_secondary,3(amine_secondary) > 7(amine_secondary),amine_secondary,amine_secondary(9.5~11.5); amine_secondary(9.5~11.5)
C1CN(CCN1)CCNCCN2CCNCC2,9.52,3,tertiary_amine,Bis(2-piperazinylethyl)amine,[HL]/[L][H],0.1,25.0,3,tertiary_amine,3(tertiary_amine),Unknown,tertiary_amine(Unknown)
C1CN(CCN1)CCNCCN2CCNCC2,8.78,3,tertiary_amine,Bis(2-piperazinylethyl)amine,[H₂L]/[HL][H],0.1,25.0,3,tertiary_amine,3(tertiary_amine),Unknown,tertiary_amine(Unknown)
C1CN(CCN1)CCNCCN2CCNCC2,8.06,3,tertiary_amine,Bis(2-piperazinylethyl)amine,[H₃L]/[H₂L][H],0.1,25.0,3,tertiary_amine,3(tertiary_amine),Unknown,tertiary_amine(Unknown)
C1CN(CCN1)CCNCCN2CCNCC2,2.14,3,tertiary_amine,Bis(2-piperazinylethyl)amine,[H₄L]/[H₃L][H],0.1,25.0,3,tertiary_amine,3(tertiary_amine),Unknown,tertiary_amine(Unknown)
CN(CCN1CCNCC1)CCN2CCNCC2,9.12,5,tertiary_amine,Bis(2-piperazinylethyl)methylamine,[HL]/[L][H],0.1,25.0,5,tertiary_amine,5(tertiary_amine),Unknown,tertiary_amine(Unknown)
CN(CCN1CCNCC1)CCN2CCNCC2,8.65,5,tertiary_amine,Bis(2-piperazinylethyl)methylamine,[H₂L]/[HL][H],0.1,25.0,5,tertiary_amine,5(tertiary_amine),Unknown,tertiary_amine(Unknown)
CN(CCN1CCNCC1)CCN2CCNCC2,7.38,5,tertiary_amine,Bis(2-piperazinylethyl)methylamine,[H₃L]/[H₂L][H],0.1,25.0,5,tertiary_amine,5(tertiary_amine),Unknown,tertiary_amine(Unknown)
CN1CCN(CC1)CCN(C)CCN2CCN(C)CC2,8.16,1,tertiary_amine,Bis[2-(4-methylpiperazinyl)ethyl]methylamine,[HL]/[L][H],0.1,25.0,1,tertiary_amine,1(tertiary_amine),Unknown,tertiary_amine(Unknown)
CN1CCN(CC1)CCN(C)CCN2CCN(C)CC2,7.75,1,tertiary_amine,Bis[2-(4-methylpiperazinyl)ethyl]methylamine,[H₂L]/[HL][H],0.1,25.0,1,tertiary_amine,1(tertiary_amine),Unknown,tertiary_amine(Unknown)
CN1CCN(CC1)CCN(C)CCN2CCN(C)CC2,6.97,1,tertiary_amine,Bis[2-(4-methylpiperazinyl)ethyl]methylamine,[H₃L]/[H₂L][H],0.1,25.0,1,tertiary_amine,1(tertiary_amine),Unknown,tertiary_amine(Unknown)
C1CN(CCN1)c2ccccc2,8.6,3,tertiary_amine,N-Phenylpiperazine,[HL]/[L][H],0.1,25.0,3,tertiary_amine,3(tertiary_amine),Unknown,tertiary_amine(Unknown)
O[S](=O)(=O)CCN1CCN(CC1)CC[S](O)(=O)=O,6.93,14,tertiary_amine,"Piperazine-N,N'-bis(ethylenesulfonic acid) (PIPES)",[HL]/[L][H],0.1,25.0,14,tertiary_amine,14(tertiary_amine),Unknown,tertiary_amine(Unknown)
O[S](=O)(=O)CCN1CCN(CC1)CC[S](O)(=O)=O,7.241,14,tertiary_amine,"Piperazine-N,N'-bis(ethylenesulfonic acid) (PIPES)",[HL]/[L][H],0.0,10.0,14,tertiary_amine,14(tertiary_amine),Unknown,tertiary_amine(Unknown)
O[S](=O)(=O)CCN1CCN(CC1)CC[S](O)(=O)=O,7.141,14,tertiary_amine,"Piperazine-N,N'-bis(ethylenesulfonic acid) (PIPES)",[HL]/[L][H],0.0,25.0,14,tertiary_amine,14(tertiary_amine),Unknown,tertiary_amine(Unknown)
O[S](=O)(=O)CCN1CCN(CC1)CC[S](O)(=O)=O,7.034,14,tertiary_amine,"Piperazine-N,N'-bis(ethylenesulfonic acid) (PIPES)",[HL]/[L][H],0.0,40.0,14,tertiary_amine,14(tertiary_amine),Unknown,tertiary_amine(Unknown)
OCCN1CCN(CC1)CC[S](O)(=O)=O,7.49,3,tertiary_amine,N-(2-Hydroxyethyl)piperazine-N'-ethylenesulfonic acid (HEPES),[HL]/[L][H],0.1,25.0,3,tertiary_amine,3(tertiary_amine),Unknown,tertiary_amine(Unknown)