SMILES,pKa,Dissociable_Atoms,Functional_Group,Name,Equilibrium,Ionic,Temperature,Dissociable_Atoms_Ordered,Functional_Group_Ordered,Dissociation_Order,Dissociating_Group,Functional_Group_pKa_Ranges
C1CCNCCNCCNCCNC1,9.4,3:6:9:12,amine_secondary:amine_secondary:amine_secondary:amine_secondary,"1,4,7,10-Tetraazacyclotetradecane",[H₂L]/[HL][H],0.1,25.0,3:6:9:12,amine_secondary:amine_secondary:amine_secondary:amine_secondary,3(amine_secondary) > 6(amine_secondary) > 9(amine_secondary) > 12(amine_secondary),amine_secondary,amine_secondary(9.5~11.5); amine_secondary(9.5~11.5); amine_secondary(9.5~11.5); amine_secondary(9.5~11.5)
C1CCNCCNCCNCCNC1,9.44,3:6:9:12,amine_secondary:amine_secondary:amine_secondary:amine_secondary,"1,4,7,10-Tetraazacyclotetradecane",[H₂L]/[HL][H],0.1,35.0,3:6:9:12,amine_secondary:amine_secondary:amine_secondary:amine_secondary,3(amine_secondary) > 6(amine_secondary) > 9(amine_secondary) > 12(amine_secondary),amine_secondary,amine_secondary(9.5~11.5); amine_secondary(9.5~11.5); amine_secondary(9.5~11.5); amine_secondary(9.5~11.5)
C1CCNCCNCCNCCNC1,9.75,3:6:9:12,amine_secondary:amine_secondary:amine_secondary:amine_secondary,"1,4,7,10-Tetraazacyclotetradecane",[H₂L]/[HL][H],0.5,25.0,3:6:9:12,amine_secondary:amine_secondary:amine_secondary:amine_secondary,3(amine_secondary) > 6(amine_secondary) > 9(amine_secondary) > 12(amine_secondary),amine_secondary,amine_secondary(9.5~11.5); amine_secondary(9.5~11.5); amine_secondary(9.5~11.5); amine_secondary(9.5~11.5)
C1CCNCCNCCNCCNC1,4.62,3:6:9:12,amine_secondary:amine_secondary:amine_secondary:amine_secondary,"1,4,7,10-Tetraazacyclotetradecane",[H₃L]/[H₂L][H],0.1,25.0,3:6:9:12,amine_secondary:amine_secondary:amine_secondary:amine_secondary,3(amine_secondary) > 6(amine_secondary) > 9(amine_secondary) > 12(amine_secondary),amine_secondary,amine_secondary(9.5~11.5); amine_secondary(9.5~11.5); amine_secondary(9.5~11.5); amine_secondary(9.5~11.5)
C1CCNCCNCCNCCNC1,4.01,3:6:9:12,amine_secondary:amine_secondary:amine_secondary:amine_secondary,"1,4,7,10-Tetraazacyclotetradecane",[H₃L]/[H₂L][H],0.1,35.0,3:6:9:12,amine_secondary:amine_secondary:amine_secondary:amine_secondary,3(amine_secondary) > 6(amine_secondary) > 9(amine_secondary) > 12(amine_secondary),amine_secondary,amine_secondary(9.5~11.5); amine_secondary(9.5~11.5); amine_secondary(9.5~11.5); amine_secondary(9.5~11.5)
C1CCNCCNCCNCCNC1,4.86,3:6:9:12,amine_secondary:amine_secondary:amine_secondary:amine_secondary,"1,4,7,10-Tetraazacyclotetradecane",[H₃L]/[H₂L][H],0.5,25.0,3:6:9:12,amine_secondary:amine_secondary:amine_secondary:amine_secondary,3(amine_secondary) > 6(amine_secondary) > 9(amine_secondary) > 12(amine_secondary),amine_secondary,amine_secondary(9.5~11.5); amine_secondary(9.5~11.5); amine_secondary(9.5~11.5); amine_secondary(9.5~11.5)
C1CCNCCNCCNCCNC1,1.9,3:6:9:12,amine_secondary:amine_secondary:amine_secondary:amine_secondary,"1,4,7,10-Tetraazacyclotetradecane",[H₄L]/[H₃L][H],0.1,35.0,3:6:9:12,amine_secondary:amine_secondary:amine_secondary:amine_secondary,3(amine_secondary) > 6(amine_secondary) > 9(amine_secondary) > 12(amine_secondary),amine_secondary,amine_secondary(9.5~11.5); amine_secondary(9.5~11.5); amine_secondary(9.5~11.5); amine_secondary(9.5~11.5)
C1CCNCCNCCNCCNC1,2.0,3:6:9:12,amine_secondary:amine_secondary:amine_secondary:amine_secondary,"1,4,7,10-Tetraazacyclotetradecane",[H₄L]/[H₃L][H],0.5,25.0,3:6:9:12,amine_secondary:amine_secondary:amine_secondary:amine_secondary,3(amine_secondary) > 6(amine_secondary) > 9(amine_secondary) > 12(amine_secondary),amine_secondary,amine_secondary(9.5~11.5); amine_secondary(9.5~11.5); amine_secondary(9.5~11.5); amine_secondary(9.5~11.5)
C1CCNCCNCCNCCNCC1,9.83,3:6:9:12,amine_secondary:amine_secondary:amine_secondary:amine_secondary,"1,4,7,10-Tetraazacyclopentadecane",[HL]/[L][H],0.1,25.0,3:6:9:12,amine_secondary:amine_secondary:amine_secondary:amine_secondary,3(amine_secondary) > 6(amine_secondary) > 9(amine_secondary) > 12(amine_secondary),amine_secondary,amine_secondary(9.5~11.5); amine_secondary(9.5~11.5); amine_secondary(9.5~11.5); amine_secondary(9.5~11.5)
C1CCNCCNCCNCCNCC1,10.25,3:6:9:12,amine_secondary:amine_secondary:amine_secondary:amine_secondary,"1,4,7,10-Tetraazacyclopentadecane",[HL]/[L][H],0.1,35.0,3:6:9:12,amine_secondary:amine_secondary:amine_secondary:amine_secondary,3(amine_secondary) > 6(amine_secondary) > 9(amine_secondary) > 12(amine_secondary),amine_secondary,amine_secondary(9.5~11.5); amine_secondary(9.5~11.5); amine_secondary(9.5~11.5); amine_secondary(9.5~11.5)
C1CCNCCNCCNCCNCC1,10.33,3:6:9:12,amine_secondary:amine_secondary:amine_secondary:amine_secondary,"1,4,7,10-Tetraazacyclopentadecane",[HL]/[L][H],0.5,25.0,3:6:9:12,amine_secondary:amine_secondary:amine_secondary:amine_secondary,3(amine_secondary) > 6(amine_secondary) > 9(amine_secondary) > 12(amine_secondary),amine_secondary,amine_secondary(9.5~11.5); amine_secondary(9.5~11.5); amine_secondary(9.5~11.5); amine_secondary(9.5~11.5)
C1CCNCCNCCNCCNCC1,8.95,3:6:9:12,amine_secondary:amine_secondary:amine_secondary:amine_secondary,"1,4,7,10-Tetraazacyclopentadecane",[H₂L]/[HL][H],0.1,25.0,3:6:9:12,amine_secondary:amine_secondary:amine_secondary:amine_secondary,3(amine_secondary) > 6(amine_secondary) > 9(amine_secondary) > 12(amine_secondary),amine_secondary,amine_secondary(9.5~11.5); amine_secondary(9.5~11.5); amine_secondary(9.5~11.5); amine_secondary(9.5~11.5)
C1CCNCCNCCNCCNCC1,9.23,3:6:9:12,amine_secondary:amine_secondary:amine_secondary:amine_secondary,"1,4,7,10-Tetraazacyclopentadecane",[H₂L]/[HL][H],0.1,35.0,3:6:9:12,amine_secondary:amine_secondary:amine_secondary:amine_secondary,3(amine_secondary) > 6(amine_secondary) > 9(amine_secondary) > 12(amine_secondary),amine_secondary,amine_secondary(9.5~11.5); amine_secondary(9.5~11.5); amine_secondary(9.5~11.5); amine_secondary(9.5~11.5)
C1CCNCCNCCNCCNCC1,9.48,3:6:9:12,amine_secondary:amine_secondary:amine_secondary:amine_secondary,"1,4,7,10-Tetraazacyclopentadecane",[H₂L]/[HL][H],0.5,25.0,3:6:9:12,amine_secondary:amine_secondary:amine_secondary:amine_secondary,3(amine_secondary) > 6(amine_secondary) > 9(amine_secondary) > 12(amine_secondary),amine_secondary,amine_secondary(9.5~11.5); amine_secondary(9.5~11.5); amine_secondary(9.5~11.5); amine_secondary(9.5~11.5)
C1CCNCCNCCNCCNCC1,5.4,3:6:9:12,amine_secondary:amine_secondary:amine_secondary:amine_secondary,"1,4,7,10-Tetraazacyclopentadecane",[H₃L]/[H₂L][H],0.1,25.0,3:6:9:12,amine_secondary:amine_secondary:amine_secondary:amine_secondary,3(amine_secondary) > 6(amine_secondary) > 9(amine_secondary) > 12(amine_secondary),amine_secondary,amine_secondary(9.5~11.5); amine_secondary(9.5~11.5); amine_secondary(9.5~11.5); amine_secondary(9.5~11.5)
C1CCNCCNCCNCCNCC1,5.17,3:6:9:12,amine_secondary:amine_secondary:amine_secondary:amine_secondary,"1,4,7,10-Tetraazacyclopentadecane",[H₃L]/[H₂L][H],0.1,35.0,3:6:9:12,amine_secondary:amine_secondary:amine_secondary:amine_secondary,3(amine_secondary) > 6(amine_secondary) > 9(amine_secondary) > 12(amine_secondary),amine_secondary,amine_secondary(9.5~11.5); amine_secondary(9.5~11.5); amine_secondary(9.5~11.5); amine_secondary(9.5~11.5)
C1CCNCCNCCNCCNCC1,5.71,3:6:9:12,amine_secondary:amine_secondary:amine_secondary:amine_secondary,"1,4,7,10-Tetraazacyclopentadecane",[H₃L]/[H₂L][H],0.5,25.0,3:6:9:12,amine_secondary:amine_secondary:amine_secondary:amine_secondary,3(amine_secondary) > 6(amine_secondary) > 9(amine_secondary) > 12(amine_secondary),amine_secondary,amine_secondary(9.5~11.5); amine_secondary(9.5~11.5); amine_secondary(9.5~11.5); amine_secondary(9.5~11.5)
C1CCNCCNCCNCCNCC1,1.6,3:6:9:12,amine_secondary:amine_secondary:amine_secondary:amine_secondary,"1,4,7,10-Tetraazacyclopentadecane",[H₄L]/[H₃L][H],0.1,25.0,3:6:9:12,amine_secondary:amine_secondary:amine_secondary:amine_secondary,3(amine_secondary) > 6(amine_secondary) > 9(amine_secondary) > 12(amine_secondary),amine_secondary,amine_secondary(9.5~11.5); amine_secondary(9.5~11.5); amine_secondary(9.5~11.5); amine_secondary(9.5~11.5)
C1CCNCCNCCNCCNCC1,1.3,3:6:9:12,amine_secondary:amine_secondary:amine_secondary:amine_secondary,"1,4,7,10-Tetraazacyclopentadecane",[H₄L]/[H₃L][H],0.5,25.0,3:6:9:12,amine_secondary:amine_secondary:amine_secondary:amine_secondary,3(amine_secondary) > 6(amine_secondary) > 9(amine_secondary) > 12(amine_secondary),amine_secondary,amine_secondary(9.5~11.5); amine_secondary(9.5~11.5); amine_secondary(9.5~11.5); amine_secondary(9.5~11.5)
C1CCCNCCNCCNCCNCC1,10.46,4:7:10:13,amine_secondary:amine_secondary:amine_secondary:amine_secondary,"1,4,7,10-Tetraazacyclohexadecane",[HL]/[L][H],0.1,35.0,4:7:10:13,amine_secondary:amine_secondary:amine_secondary:amine_secondary,4(amine_secondary) > 7(amine_secondary) > 10(amine_secondary) > 13(amine_secondary),amine_secondary,amine_secondary(9.5~11.5); amine_secondary(9.5~11.5); amine_secondary(9.5~11.5); amine_secondary(9.5~11.5)
C1CCCNCCNCCNCCNCC1,9.34,4:7:10:13,amine_secondary:amine_secondary:amine_secondary:amine_secondary,"1,4,7,10-Tetraazacyclohexadecane",[H₂L]/[HL][H],0.1,35.0,4:7:10:13,amine_secondary:amine_secondary:amine_secondary:amine_secondary,4(amine_secondary) > 7(amine_secondary) > 10(amine_secondary) > 13(amine_secondary),amine_secondary,amine_secondary(9.5~11.5); amine_secondary(9.5~11.5); amine_secondary(9.5~11.5); amine_secondary(9.5~11.5)
C1CCCNCCNCCNCCNCC1,5.51,4:7:10:13,amine_secondary:amine_secondary:amine_secondary:amine_secondary,"1,4,7,10-Tetraazacyclohexadecane",[H₃L]/[H₂L][H],0.1,35.0,4:7:10:13,amine_secondary:amine_secondary:amine_secondary:amine_secondary,4(amine_secondary) > 7(amine_secondary) > 10(amine_secondary) > 13(amine_secondary),amine_secondary,amine_secondary(9.5~11.5); amine_secondary(9.5~11.5); amine_secondary(9.5~11.5); amine_secondary(9.5~11.5)
C1CCCNCCNCCNCCNCC1,1.9,4:7:10:13,amine_secondary:amine_secondary:amine_secondary:amine_secondary,"1,4,7,10-Tetraazacyclohexadecane",[H₄L]/[H₃L][H],0.1,35.0,4:7:10:13,amine_secondary:amine_secondary:amine_secondary:amine_secondary,4(amine_secondary) > 7(amine_secondary) > 10(amine_secondary) > 13(amine_secondary),amine_secondary,amine_secondary(9.5~11.5); amine_secondary(9.5~11.5); amine_secondary(9.5~11.5); amine_secondary(9.5~11.5)
NCCN1CCCNCCNCCNCCC1,10.92,0:7:10:13,amine_primary:amine_secondary:amine_secondary:amine_secondary,"11-(2-Aminoethyl)-1,4,7,11-tetraazacyclotetradecane",[HL]/[L][H],0.5,25.0,0:7:10:13,amine_primary:amine_secondary:amine_secondary:amine_secondary,0(amine_primary) > 7(amine_secondary) > 10(amine_secondary) > 13(amine_secondary),amine_secondary,amine_primary(9.0~11.0); amine_secondary(9.5~11.5); amine_secondary(9.5~11.5); amine_secondary(9.5~11.5)
NCCN1CCCNCCNCCNCCC1,9.79,0:7:10:13,amine_primary:amine_secondary:amine_secondary:amine_secondary,"11-(2-Aminoethyl)-1,4,7,11-tetraazacyclotetradecane",[H₂L]/[HL][H],0.5,25.0,0:7:10:13,amine_primary:amine_secondary:amine_secondary:amine_secondary,0(amine_primary) > 7(amine_secondary) > 10(amine_secondary) > 13(amine_secondary),amine_primary,amine_primary(9.0~11.0); amine_secondary(9.5~11.5); amine_secondary(9.5~11.5); amine_secondary(9.5~11.5)
NCCN1CCCNCCNCCNCCC1,8.61,0:7:10:13,amine_primary:amine_secondary:amine_secondary:amine_secondary,"11-(2-Aminoethyl)-1,4,7,11-tetraazacyclotetradecane",[H₃L]/[H₂L][H],0.5,25.0,0:7:10:13,amine_primary:amine_secondary:amine_secondary:amine_secondary,0(amine_primary) > 7(amine_secondary) > 10(amine_secondary) > 13(amine_secondary),amine_primary,amine_primary(9.0~11.0); amine_secondary(9.5~11.5); amine_secondary(9.5~11.5); amine_secondary(9.5~11.5)
NCCN1CCCNCCNCCNCCC1,1.9,0:7:10:13,amine_primary:amine_secondary:amine_secondary:amine_secondary,"11-(2-Aminoethyl)-1,4,7,11-tetraazacyclotetradecane",[H₄L]/[H₃L][H],0.5,25.0,0:7:10:13,amine_primary:amine_secondary:amine_secondary:amine_secondary,0(amine_primary) > 7(amine_secondary) > 10(amine_secondary) > 13(amine_secondary),amine_primary,amine_primary(9.0~11.0); amine_secondary(9.5~11.5); amine_secondary(9.5~11.5); amine_secondary(9.5~11.5)
NCCCN1CCCNCCNCCNCCC1,11.07,0:8:11:14,amine_primary:amine_secondary:amine_secondary:amine_secondary,"11-(3-Aminopropyl)-1,4,7,11-tetraazacyclotetradecane",[HL]/[L][H],0.5,25.0,0:8:11:14,amine_primary:amine_secondary:amine_secondary:amine_secondary,0(amine_primary) > 8(amine_secondary) > 11(amine_secondary) > 14(amine_secondary),amine_secondary,amine_primary(9.0~11.0); amine_secondary(9.5~11.5); amine_secondary(9.5~11.5); amine_secondary(9.5~11.5)
NCCCN1CCCNCCNCCNCCC1,9.98,0:8:11:14,amine_primary:amine_secondary:amine_secondary:amine_secondary,"11-(3-Aminopropyl)-1,4,7,11-tetraazacyclotetradecane",[H₂L]/[HL][H],0.5,25.0,0:8:11:14,amine_primary:amine_secondary:amine_secondary:amine_secondary,0(amine_primary) > 8(amine_secondary) > 11(amine_secondary) > 14(amine_secondary),amine_primary,amine_primary(9.0~11.0); amine_secondary(9.5~11.5); amine_secondary(9.5~11.5); amine_secondary(9.5~11.5)
NCCCN1CCCNCCNCCNCCC1,9.17,0:8:11:14,amine_primary:amine_secondary:amine_secondary:amine_secondary,"11-(3-Aminopropyl)-1,4,7,11-tetraazacyclotetradecane",[H₃L]/[H₂L][H],0.5,25.0,0:8:11:14,amine_primary:amine_secondary:amine_secondary:amine_secondary,0(amine_primary) > 8(amine_secondary) > 11(amine_secondary) > 14(amine_secondary),amine_primary,amine_primary(9.0~11.0); amine_secondary(9.5~11.5); amine_secondary(9.5~11.5); amine_secondary(9.5~11.5)
NCCCN1CCCNCCNCCNCCC1,3.64,0:8:11:14,amine_primary:amine_secondary:amine_secondary:amine_secondary,"11-(3-Aminopropyl)-1,4,7,11-tetraazacyclotetradecane",[H₄L]/[H₃L][H],0.5,25.0,0:8:11:14,amine_primary:amine_secondary:amine_secondary:amine_secondary,0(amine_primary) > 8(amine_secondary) > 11(amine_secondary) > 14(amine_secondary),amine_primary,amine_primary(9.0~11.0); amine_secondary(9.5~11.5); amine_secondary(9.5~11.5); amine_secondary(9.5~11.5)
C1CNCCNCCCNCCNC1,11.4,2:5:9:12,amine_secondary:amine_secondary:amine_secondary:amine_secondary,"1,4,8,11-Tetraazacyclotetradecane ([14]aneN4)(Cyclam)",[HL]/[L][H],0.1,25.0,2:5:9:12,amine_secondary:amine_secondary:amine_secondary:amine_secondary,2(amine_secondary) > 5(amine_secondary) > 9(amine_secondary) > 12(amine_secondary),amine_secondary,amine_secondary(9.5~11.5); amine_secondary(9.5~11.5); amine_secondary(9.5~11.5); amine_secondary(9.5~11.5)
C1CNCCNCCCNCCNC1,11.11,2:5:9:12,amine_secondary:amine_secondary:amine_secondary:amine_secondary,"1,4,8,11-Tetraazacyclotetradecane ([14]aneN4)(Cyclam)",[HL]/[L][H],0.1,35.0,2:5:9:12,amine_secondary:amine_secondary:amine_secondary:amine_secondary,2(amine_secondary) > 5(amine_secondary) > 9(amine_secondary) > 12(amine_secondary),amine_secondary,amine_secondary(9.5~11.5); amine_secondary(9.5~11.5); amine_secondary(9.5~11.5); amine_secondary(9.5~11.5)
C1CNCCNCCCNCCNC1,11.63,2:5:9:12,amine_secondary:amine_secondary:amine_secondary:amine_secondary,"1,4,8,11-Tetraazacyclotetradecane ([14]aneN4)(Cyclam)",[HL]/[L][H],0.5,25.0,2:5:9:12,amine_secondary:amine_secondary:amine_secondary:amine_secondary,2(amine_secondary) > 5(amine_secondary) > 9(amine_secondary) > 12(amine_secondary),amine_secondary,amine_secondary(9.5~11.5); amine_secondary(9.5~11.5); amine_secondary(9.5~11.5); amine_secondary(9.5~11.5)
C1CNCCNCCCNCCNC1,10.28,2:5:9:12,amine_secondary:amine_secondary:amine_secondary:amine_secondary,"1,4,8,11-Tetraazacyclotetradecane ([14]aneN4)(Cyclam)",[H₂L]/[HL][H],0.1,25.0,2:5:9:12,amine_secondary:amine_secondary:amine_secondary:amine_secondary,2(amine_secondary) > 5(amine_secondary) > 9(amine_secondary) > 12(amine_secondary),amine_secondary,amine_secondary(9.5~11.5); amine_secondary(9.5~11.5); amine_secondary(9.5~11.5); amine_secondary(9.5~11.5)
C1CNCCNCCCNCCNC1,10.18,2:5:9:12,amine_secondary:amine_secondary:amine_secondary:amine_secondary,"1,4,8,11-Tetraazacyclotetradecane ([14]aneN4)(Cyclam)",[H₂L]/[HL][H],0.1,35.0,2:5:9:12,amine_secondary:amine_secondary:amine_secondary:amine_secondary,2(amine_secondary) > 5(amine_secondary) > 9(amine_secondary) > 12(amine_secondary),amine_secondary,amine_secondary(9.5~11.5); amine_secondary(9.5~11.5); amine_secondary(9.5~11.5); amine_secondary(9.5~11.5)
C1CNCCNCCCNCCNC1,10.62,2:5:9:12,amine_secondary:amine_secondary:amine_secondary:amine_secondary,"1,4,8,11-Tetraazacyclotetradecane ([14]aneN4)(Cyclam)",[H₂L]/[HL][H],0.5,25.0,2:5:9:12,amine_secondary:amine_secondary:amine_secondary:amine_secondary,2(amine_secondary) > 5(amine_secondary) > 9(amine_secondary) > 12(amine_secondary),amine_secondary,amine_secondary(9.5~11.5); amine_secondary(9.5~11.5); amine_secondary(9.5~11.5); amine_secondary(9.5~11.5)
C1CNCCNCCCNCCNC1,1.6,2:5:9:12,amine_secondary:amine_secondary:amine_secondary:amine_secondary,"1,4,8,11-Tetraazacyclotetradecane ([14]aneN4)(Cyclam)",[H₃L]/[H₂L][H],0.1,25.0,2:5:9:12,amine_secondary:amine_secondary:amine_secondary:amine_secondary,2(amine_secondary) > 5(amine_secondary) > 9(amine_secondary) > 12(amine_secondary),amine_secondary,amine_secondary(9.5~11.5); amine_secondary(9.5~11.5); amine_secondary(9.5~11.5); amine_secondary(9.5~11.5)
C1CNCCNCCCNCCNC1,1.4,2:5:9:12,amine_secondary:amine_secondary:amine_secondary:amine_secondary,"1,4,8,11-Tetraazacyclotetradecane ([14]aneN4)(Cyclam)",[H₃L]/[H₂L][H],0.1,35.0,2:5:9:12,amine_secondary:amine_secondary:amine_secondary:amine_secondary,2(amine_secondary) > 5(amine_secondary) > 9(amine_secondary) > 12(amine_secondary),amine_secondary,amine_secondary(9.5~11.5); amine_secondary(9.5~11.5); amine_secondary(9.5~11.5); amine_secondary(9.5~11.5)
C1CNCCNCCCNCCNC1,1.6,2:5:9:12,amine_secondary:amine_secondary:amine_secondary:amine_secondary,"1,4,8,11-Tetraazacyclotetradecane ([14]aneN4)(Cyclam)",[H₃L]/[H₂L][H],0.5,25.0,2:5:9:12,amine_secondary:amine_secondary:amine_secondary:amine_secondary,2(amine_secondary) > 5(amine_secondary) > 9(amine_secondary) > 12(amine_secondary),amine_secondary,amine_secondary(9.5~11.5); amine_secondary(9.5~11.5); amine_secondary(9.5~11.5); amine_secondary(9.5~11.5)
C1CNCCNCCCNCCNC1,2.1,2:5:9:12,amine_secondary:amine_secondary:amine_secondary:amine_secondary,"1,4,8,11-Tetraazacyclotetradecane ([14]aneN4)(Cyclam)",[H₄L]/[H₃L][H],0.1,25.0,2:5:9:12,amine_secondary:amine_secondary:amine_secondary:amine_secondary,2(amine_secondary) > 5(amine_secondary) > 9(amine_secondary) > 12(amine_secondary),amine_secondary,amine_secondary(9.5~11.5); amine_secondary(9.5~11.5); amine_secondary(9.5~11.5); amine_secondary(9.5~11.5)
C1CNCCNCCCNCCNC1,2.4,2:5:9:12,amine_secondary:amine_secondary:amine_secondary:amine_secondary,"1,4,8,11-Tetraazacyclotetradecane ([14]aneN4)(Cyclam)",[H₄L]/[H₃L][H],0.5,25.0,2:5:9:12,amine_secondary:amine_secondary:amine_secondary:amine_secondary,2(amine_secondary) > 5(amine_secondary) > 9(amine_secondary) > 12(amine_secondary),amine_secondary,amine_secondary(9.5~11.5); amine_secondary(9.5~11.5); amine_secondary(9.5~11.5); amine_secondary(9.5~11.5)
CC1CNCCNCCCNCCNC1,11.08,3:6:10,amine_secondary:amine_secondary:amine_secondary,"6-Methyl-1,4,8,11-tetraazacyclotetradecane",[HL]/[L][H],0.1,35.0,3:6:10,amine_secondary:amine_secondary:amine_secondary,3(amine_secondary) > 6(amine_secondary) > 10(amine_secondary),amine_secondary,amine_secondary(9.5~11.5); amine_secondary(9.5~11.5); amine_secondary(9.5~11.5)
CC1CNCCNCCCNCCNC1,10.12,3:6:10,amine_secondary:amine_secondary:amine_secondary,"6-Methyl-1,4,8,11-tetraazacyclotetradecane",[H₂L]/[HL][H],0.1,35.0,3:6:10,amine_secondary:amine_secondary:amine_secondary,3(amine_secondary) > 6(amine_secondary) > 10(amine_secondary),amine_secondary,amine_secondary(9.5~11.5); amine_secondary(9.5~11.5); amine_secondary(9.5~11.5)
CC1CNCCNCCCNCCNC1,2.0,3:6:10,amine_secondary:amine_secondary:amine_secondary,"6-Methyl-1,4,8,11-tetraazacyclotetradecane",[H₃L]/[H₂L][H],0.1,35.0,3:6:10,amine_secondary:amine_secondary:amine_secondary,3(amine_secondary) > 6(amine_secondary) > 10(amine_secondary),amine_secondary,amine_secondary(9.5~11.5); amine_secondary(9.5~11.5); amine_secondary(9.5~11.5)