SMILES,pKa,Dissociable_Atoms,Functional_Group,Name,Equilibrium,Ionic,Temperature,Dissociable_Atoms_Ordered,Functional_Group_Ordered,Dissociation_Order,Dissociating_Group,Functional_Group_pKa_Ranges
NCC(=O)N1CCC[C@H]1C(=O)N[C@@H](Cc2ccccc2)C(=O)NCC(O)=O,8.29,7,tertiary_amine,Glycyl-L-prolyl-L-phenylalanylglycine,[HL]/[L][H],0.1,25.0,7,tertiary_amine,7(tertiary_amine),Unknown,tertiary_amine(Unknown)
NCC(=O)N1CCC[C@H]1C(=O)N[C@H](Cc2ccccc2)C(=O)NCC(O)=O,8.64,7,tertiary_amine,Glycyl-L-prolyl-D-phenylalanylglycine,[HL]/[L][H],0.1,25.0,7,tertiary_amine,7(tertiary_amine),Unknown,tertiary_amine(Unknown)
N[C@@H](Cc1ccccc1)C(=O)N2CCC[C@H]2C(=O)NCC(=O)NCC(O)=O,7.75,25:0,carboxylic_acid:amine_primary,L-Phenylalanyl-L-prolylglycylglycine,[HL]/[L][H],0.1,25.0,25:0,carboxylic_acid:amine_primary,25(carboxylic_acid) > 0(amine_primary),amine_primary,carboxylic_acid(1.5~5.0); amine_primary(9.0~11.0)
N[C@@H](Cc1ccccc1)C(=O)N2CCC[C@H]2C(=O)NCC(=O)NCC(O)=O,3.11,25:0,carboxylic_acid:amine_primary,L-Phenylalanyl-L-prolylglycylglycine,[H₂L]/[HL][H],0.1,25.0,25:0,carboxylic_acid:amine_primary,25(carboxylic_acid) > 0(amine_primary),carboxylic_acid,carboxylic_acid(1.5~5.0); amine_primary(9.0~11.0)
C[C@H](N)C(=O)N[C@@H](C)C(=O)N[C@@H](C)C(=O)N[C@@H](CC(O)=O)C(O)=O,8.05,19:22:2,carboxylic_acid:carboxylic_acid:amine_primary,L-Alanyl-L-alanyl-L-alanyl-L-aspartic acid,[HL]/[L][H],0.1,25.0,19:22:2,carboxylic_acid:carboxylic_acid:amine_primary,19(carboxylic_acid) > 22(carboxylic_acid) > 2(amine_primary),amine_primary,carboxylic_acid(1.5~5.0); carboxylic_acid(1.5~5.0); amine_primary(9.0~11.0)
C[C@H](N)C(=O)N[C@@H](C)C(=O)N[C@@H](C)C(=O)N[C@@H](CC(O)=O)C(O)=O,4.01,19:22:2,carboxylic_acid:carboxylic_acid:amine_primary,L-Alanyl-L-alanyl-L-alanyl-L-aspartic acid,[H₂L]/[HL][H],0.1,25.0,19:22:2,carboxylic_acid:carboxylic_acid:amine_primary,19(carboxylic_acid) > 22(carboxylic_acid) > 2(amine_primary),carboxylic_acid,carboxylic_acid(1.5~5.0); carboxylic_acid(1.5~5.0); amine_primary(9.0~11.0)
C[C@H](N)C(=O)N[C@@H](C)C(=O)N[C@@H](C)C(=O)N[C@@H](CC(O)=O)C(O)=O,3.15,19:22:2,carboxylic_acid:carboxylic_acid:amine_primary,L-Alanyl-L-alanyl-L-alanyl-L-aspartic acid,[H₃L]/[H₂L][H],0.1,25.0,19:22:2,carboxylic_acid:carboxylic_acid:amine_primary,19(carboxylic_acid) > 22(carboxylic_acid) > 2(amine_primary),carboxylic_acid,carboxylic_acid(1.5~5.0); carboxylic_acid(1.5~5.0); amine_primary(9.0~11.0)
C[C@H](N)C(=O)N[C@@H](C)C(=O)N[C@@H](CC(O)=O)C(=O)N[C@@H](C)C(O)=O,8.29,14:22:2,carboxylic_acid:carboxylic_acid:amine_primary,L-Alanyl-L-alanyl-L-aspartyl-L-alanine,[HL]/[L][H],0.1,25.0,14:22:2,carboxylic_acid:carboxylic_acid:amine_primary,14(carboxylic_acid) > 22(carboxylic_acid) > 2(amine_primary),amine_primary,carboxylic_acid(1.5~5.0); carboxylic_acid(1.5~5.0); amine_primary(9.0~11.0)
C[C@H](N)C(=O)N[C@@H](C)C(=O)N[C@@H](CC(O)=O)C(=O)N[C@@H](C)C(O)=O,4.22,14:22:2,carboxylic_acid:carboxylic_acid:amine_primary,L-Alanyl-L-alanyl-L-aspartyl-L-alanine,[H₂L]/[HL][H],0.1,25.0,14:22:2,carboxylic_acid:carboxylic_acid:amine_primary,14(carboxylic_acid) > 22(carboxylic_acid) > 2(amine_primary),carboxylic_acid,carboxylic_acid(1.5~5.0); carboxylic_acid(1.5~5.0); amine_primary(9.0~11.0)
C[C@H](N)C(=O)N[C@@H](C)C(=O)N[C@@H](CC(O)=O)C(=O)N[C@@H](C)C(O)=O,3.29,14:22:2,carboxylic_acid:carboxylic_acid:amine_primary,L-Alanyl-L-alanyl-L-aspartyl-L-alanine,[H₃L]/[H₂L][H],0.1,25.0,14:22:2,carboxylic_acid:carboxylic_acid:amine_primary,14(carboxylic_acid) > 22(carboxylic_acid) > 2(amine_primary),carboxylic_acid,carboxylic_acid(1.5~5.0); carboxylic_acid(1.5~5.0); amine_primary(9.0~11.0)
C[C@H](N)C(=O)N[C@@H](CC(O)=O)C(=O)N[C@@H](C)C(=O)N[C@@H](C)C(O)=O,7.96,9:22:2,carboxylic_acid:carboxylic_acid:amine_primary,L-Alanyl-L-aspartyl-L-alanyl-L-alanine,[HL]/[L][H],0.1,25.0,9:22:2,carboxylic_acid:carboxylic_acid:amine_primary,9(carboxylic_acid) > 22(carboxylic_acid) > 2(amine_primary),amine_primary,carboxylic_acid(1.5~5.0); carboxylic_acid(1.5~5.0); amine_primary(9.0~11.0)
C[C@H](N)C(=O)N[C@@H](CC(O)=O)C(=O)N[C@@H](C)C(=O)N[C@@H](C)C(O)=O,3.85,9:22:2,carboxylic_acid:carboxylic_acid:amine_primary,L-Alanyl-L-aspartyl-L-alanyl-L-alanine,[H₂L]/[HL][H],0.1,25.0,9:22:2,carboxylic_acid:carboxylic_acid:amine_primary,9(carboxylic_acid) > 22(carboxylic_acid) > 2(amine_primary),carboxylic_acid,carboxylic_acid(1.5~5.0); carboxylic_acid(1.5~5.0); amine_primary(9.0~11.0)
C[C@H](N)C(=O)N[C@@H](CC(O)=O)C(=O)N[C@@H](C)C(=O)N[C@@H](C)C(O)=O,3.22,9:22:2,carboxylic_acid:carboxylic_acid:amine_primary,L-Alanyl-L-aspartyl-L-alanyl-L-alanine,[H₃L]/[H₂L][H],0.1,25.0,9:22:2,carboxylic_acid:carboxylic_acid:amine_primary,9(carboxylic_acid) > 22(carboxylic_acid) > 2(amine_primary),carboxylic_acid,carboxylic_acid(1.5~5.0); carboxylic_acid(1.5~5.0); amine_primary(9.0~11.0)
C[C@H](NC(=O)[C@H](C)NC(=O)[C@H](C)NC(=O)[C@@H](N)CC(O)=O)C(O)=O,7.69,19:22:16,carboxylic_acid:carboxylic_acid:amine_primary,L-Aspartyl-L-alanyl-L-alanyl-L-alanine,[HL]/[L][H],0.1,25.0,19:22:16,carboxylic_acid:carboxylic_acid:amine_primary,19(carboxylic_acid) > 22(carboxylic_acid) > 16(amine_primary),amine_primary,carboxylic_acid(1.5~5.0); carboxylic_acid(1.5~5.0); amine_primary(9.0~11.0)
C[C@H](NC(=O)[C@H](C)NC(=O)[C@H](C)NC(=O)[C@@H](N)CC(O)=O)C(O)=O,3.6,19:22:16,carboxylic_acid:carboxylic_acid:amine_primary,L-Aspartyl-L-alanyl-L-alanyl-L-alanine,[H₂L]/[HL][H],0.1,25.0,19:22:16,carboxylic_acid:carboxylic_acid:amine_primary,19(carboxylic_acid) > 22(carboxylic_acid) > 16(amine_primary),carboxylic_acid,carboxylic_acid(1.5~5.0); carboxylic_acid(1.5~5.0); amine_primary(9.0~11.0)
C[C@H](NC(=O)[C@H](C)NC(=O)[C@H](C)NC(=O)[C@@H](N)CC(O)=O)C(O)=O,3.07,19:22:16,carboxylic_acid:carboxylic_acid:amine_primary,L-Aspartyl-L-alanyl-L-alanyl-L-alanine,[H₃L]/[H₂L][H],0.1,25.0,19:22:16,carboxylic_acid:carboxylic_acid:amine_primary,19(carboxylic_acid) > 22(carboxylic_acid) > 16(amine_primary),carboxylic_acid,carboxylic_acid(1.5~5.0); carboxylic_acid(1.5~5.0); amine_primary(9.0~11.0)
C[C@H](N)C(=O)N[C@@H](C)C(=O)N[C@@H](CCC(O)=O)C(=O)N[C@@H](C)C(O)=O,8.1,15:23:2,carboxylic_acid:carboxylic_acid:amine_primary,L-Alanyl-L-alanyl-L-glutamyl-L-alanine,[HL]/[L][H],0.1,25.0,15:23:2,carboxylic_acid:carboxylic_acid:amine_primary,15(carboxylic_acid) > 23(carboxylic_acid) > 2(amine_primary),amine_primary,carboxylic_acid(1.5~5.0); carboxylic_acid(1.5~5.0); amine_primary(9.0~11.0)
C[C@H](N)C(=O)N[C@@H](C)C(=O)N[C@@H](CCC(O)=O)C(=O)N[C@@H](C)C(O)=O,4.23,15:23:2,carboxylic_acid:carboxylic_acid:amine_primary,L-Alanyl-L-alanyl-L-glutamyl-L-alanine,[H₂L]/[HL][H],0.1,25.0,15:23:2,carboxylic_acid:carboxylic_acid:amine_primary,15(carboxylic_acid) > 23(carboxylic_acid) > 2(amine_primary),carboxylic_acid,carboxylic_acid(1.5~5.0); carboxylic_acid(1.5~5.0); amine_primary(9.0~11.0)
C[C@H](N)C(=O)N[C@@H](C)C(=O)N[C@@H](CCC(O)=O)C(=O)N[C@@H](C)C(O)=O,3.25,15:23:2,carboxylic_acid:carboxylic_acid:amine_primary,L-Alanyl-L-alanyl-L-glutamyl-L-alanine,[H₃L]/[H₂L][H],0.1,25.0,15:23:2,carboxylic_acid:carboxylic_acid:amine_primary,15(carboxylic_acid) > 23(carboxylic_acid) > 2(amine_primary),carboxylic_acid,carboxylic_acid(1.5~5.0); carboxylic_acid(1.5~5.0); amine_primary(9.0~11.0)
C[C@H](N)C(=O)N[C@@H](CCC(O)=O)C(=O)N[C@@H](C)C(=O)N[C@@H](C)C(O)=O,7.9,10:23:2,carboxylic_acid:carboxylic_acid:amine_primary,L-Alanyl-L-glutamyl-L-alanyl-L-alanine,[HL]/[L][H],0.1,25.0,10:23:2,carboxylic_acid:carboxylic_acid:amine_primary,10(carboxylic_acid) > 23(carboxylic_acid) > 2(amine_primary),amine_primary,carboxylic_acid(1.5~5.0); carboxylic_acid(1.5~5.0); amine_primary(9.0~11.0)
C[C@H](N)C(=O)N[C@@H](CCC(O)=O)C(=O)N[C@@H](C)C(=O)N[C@@H](C)C(O)=O,4.07,10:23:2,carboxylic_acid:carboxylic_acid:amine_primary,L-Alanyl-L-glutamyl-L-alanyl-L-alanine,[H₂L]/[HL][H],0.1,25.0,10:23:2,carboxylic_acid:carboxylic_acid:amine_primary,10(carboxylic_acid) > 23(carboxylic_acid) > 2(amine_primary),carboxylic_acid,carboxylic_acid(1.5~5.0); carboxylic_acid(1.5~5.0); amine_primary(9.0~11.0)
C[C@H](N)C(=O)N[C@@H](CCC(O)=O)C(=O)N[C@@H](C)C(=O)N[C@@H](C)C(O)=O,3.18,10:23:2,carboxylic_acid:carboxylic_acid:amine_primary,L-Alanyl-L-glutamyl-L-alanyl-L-alanine,[H₃L]/[H₂L][H],0.1,25.0,10:23:2,carboxylic_acid:carboxylic_acid:amine_primary,10(carboxylic_acid) > 23(carboxylic_acid) > 2(amine_primary),carboxylic_acid,carboxylic_acid(1.5~5.0); carboxylic_acid(1.5~5.0); amine_primary(9.0~11.0)
C[C@H](NC(=O)[C@H](C)NC(=O)[C@H](C)NC(=O)[C@@H](N)CCC(O)=O)C(O)=O,7.77,20:23:16,carboxylic_acid:carboxylic_acid:amine_primary,L-Glutamyl-L-alanyl-L-alanyl-L-alanine,[HL]/[L][H],0.1,25.0,20:23:16,carboxylic_acid:carboxylic_acid:amine_primary,20(carboxylic_acid) > 23(carboxylic_acid) > 16(amine_primary),amine_primary,carboxylic_acid(1.5~5.0); carboxylic_acid(1.5~5.0); amine_primary(9.0~11.0)
C[C@H](NC(=O)[C@H](C)NC(=O)[C@H](C)NC(=O)[C@@H](N)CCC(O)=O)C(O)=O,4.08,20:23:16,carboxylic_acid:carboxylic_acid:amine_primary,L-Glutamyl-L-alanyl-L-alanyl-L-alanine,[H₂L]/[HL][H],0.1,25.0,20:23:16,carboxylic_acid:carboxylic_acid:amine_primary,20(carboxylic_acid) > 23(carboxylic_acid) > 16(amine_primary),carboxylic_acid,carboxylic_acid(1.5~5.0); carboxylic_acid(1.5~5.0); amine_primary(9.0~11.0)
C[C@H](NC(=O)[C@H](C)NC(=O)[C@H](C)NC(=O)[C@@H](N)CCC(O)=O)C(O)=O,3.13,20:23:16,carboxylic_acid:carboxylic_acid:amine_primary,L-Glutamyl-L-alanyl-L-alanyl-L-alanine,[H₃L]/[H₂L][H],0.1,25.0,20:23:16,carboxylic_acid:carboxylic_acid:amine_primary,20(carboxylic_acid) > 23(carboxylic_acid) > 16(amine_primary),carboxylic_acid,carboxylic_acid(1.5~5.0); carboxylic_acid(1.5~5.0); amine_primary(9.0~11.0)
C[C@H](N)C(=O)N[C@@H](CC(O)=O)C(=O)N[C@@H](CC(O)=O)C(=O)N[C@@H](C)C(O)=O,8.3,9:17:25:2,carboxylic_acid:carboxylic_acid:carboxylic_acid:amine_primary,L-Alanyl-L-aspartyl-L-aspartyl-L-alanine,[HL]/[L][H],0.1,25.0,9:17:25:2,carboxylic_acid:carboxylic_acid:carboxylic_acid:amine_primary,9(carboxylic_acid) > 17(carboxylic_acid) > 25(carboxylic_acid) > 2(amine_primary),amine_primary,carboxylic_acid(1.5~5.0); carboxylic_acid(1.5~5.0); carboxylic_acid(1.5~5.0); amine_primary(9.0~11.0)
C[C@H](N)C(=O)N[C@@H](CC(O)=O)C(=O)N[C@@H](CC(O)=O)C(=O)N[C@@H](C)C(O)=O,4.35,9:17:25:2,carboxylic_acid:carboxylic_acid:carboxylic_acid:amine_primary,L-Alanyl-L-aspartyl-L-aspartyl-L-alanine,[H₂L]/[HL][H],0.1,25.0,9:17:25:2,carboxylic_acid:carboxylic_acid:carboxylic_acid:amine_primary,9(carboxylic_acid) > 17(carboxylic_acid) > 25(carboxylic_acid) > 2(amine_primary),carboxylic_acid,carboxylic_acid(1.5~5.0); carboxylic_acid(1.5~5.0); carboxylic_acid(1.5~5.0); amine_primary(9.0~11.0)
C[C@H](N)C(=O)N[C@@H](CC(O)=O)C(=O)N[C@@H](CC(O)=O)C(=O)N[C@@H](C)C(O)=O,3.5,9:17:25:2,carboxylic_acid:carboxylic_acid:carboxylic_acid:amine_primary,L-Alanyl-L-aspartyl-L-aspartyl-L-alanine,[H₃L]/[H₂L][H],0.1,25.0,9:17:25:2,carboxylic_acid:carboxylic_acid:carboxylic_acid:amine_primary,9(carboxylic_acid) > 17(carboxylic_acid) > 25(carboxylic_acid) > 2(amine_primary),carboxylic_acid,carboxylic_acid(1.5~5.0); carboxylic_acid(1.5~5.0); carboxylic_acid(1.5~5.0); amine_primary(9.0~11.0)
C[C@H](N)C(=O)N[C@@H](CC(O)=O)C(=O)N[C@@H](CC(O)=O)C(=O)N[C@@H](C)C(O)=O,2.93,9:17:25:2,carboxylic_acid:carboxylic_acid:carboxylic_acid:amine_primary,L-Alanyl-L-aspartyl-L-aspartyl-L-alanine,[H₄L]/[H₃L][H],0.1,25.0,9:17:25:2,carboxylic_acid:carboxylic_acid:carboxylic_acid:amine_primary,9(carboxylic_acid) > 17(carboxylic_acid) > 25(carboxylic_acid) > 2(amine_primary),carboxylic_acid,carboxylic_acid(1.5~5.0); carboxylic_acid(1.5~5.0); carboxylic_acid(1.5~5.0); amine_primary(9.0~11.0)
C[C@H](NC(=O)[C@H](C)NC(=O)[C@@H](N)CC(O)=O)C(=O)N[C@@H](CC(O)=O)C(O)=O,8.0,14:22:25:11,carboxylic_acid:carboxylic_acid:carboxylic_acid:amine_primary,L-Aspartyl-L-alanyl-L-alanyl-L-aspartic acid,[HL]/[L][H],0.1,25.0,14:22:25:11,carboxylic_acid:carboxylic_acid:carboxylic_acid:amine_primary,14(carboxylic_acid) > 22(carboxylic_acid) > 25(carboxylic_acid) > 11(amine_primary),amine_primary,carboxylic_acid(1.5~5.0); carboxylic_acid(1.5~5.0); carboxylic_acid(1.5~5.0); amine_primary(9.0~11.0)
C[C@H](NC(=O)[C@H](C)NC(=O)[C@@H](N)CC(O)=O)C(=O)N[C@@H](CC(O)=O)C(O)=O,4.64,14:22:25:11,carboxylic_acid:carboxylic_acid:carboxylic_acid:amine_primary,L-Aspartyl-L-alanyl-L-alanyl-L-aspartic acid,[H₂L]/[HL][H],0.1,25.0,14:22:25:11,carboxylic_acid:carboxylic_acid:carboxylic_acid:amine_primary,14(carboxylic_acid) > 22(carboxylic_acid) > 25(carboxylic_acid) > 11(amine_primary),carboxylic_acid,carboxylic_acid(1.5~5.0); carboxylic_acid(1.5~5.0); carboxylic_acid(1.5~5.0); amine_primary(9.0~11.0)
C[C@H](NC(=O)[C@H](C)NC(=O)[C@@H](N)CC(O)=O)C(=O)N[C@@H](CC(O)=O)C(O)=O,3.26,14:22:25:11,carboxylic_acid:carboxylic_acid:carboxylic_acid:amine_primary,L-Aspartyl-L-alanyl-L-alanyl-L-aspartic acid,[H₃L]/[H₂L][H],0.1,25.0,14:22:25:11,carboxylic_acid:carboxylic_acid:carboxylic_acid:amine_primary,14(carboxylic_acid) > 22(carboxylic_acid) > 25(carboxylic_acid) > 11(amine_primary),carboxylic_acid,carboxylic_acid(1.5~5.0); carboxylic_acid(1.5~5.0); carboxylic_acid(1.5~5.0); amine_primary(9.0~11.0)
C[C@H](NC(=O)[C@H](C)NC(=O)[C@@H](N)CC(O)=O)C(=O)N[C@@H](CC(O)=O)C(O)=O,3.12,14:22:25:11,carboxylic_acid:carboxylic_acid:carboxylic_acid:amine_primary,L-Aspartyl-L-alanyl-L-alanyl-L-aspartic acid,[H₄L]/[H₃L][H],0.1,25.0,14:22:25:11,carboxylic_acid:carboxylic_acid:carboxylic_acid:amine_primary,14(carboxylic_acid) > 22(carboxylic_acid) > 25(carboxylic_acid) > 11(amine_primary),carboxylic_acid,carboxylic_acid(1.5~5.0); carboxylic_acid(1.5~5.0); carboxylic_acid(1.5~5.0); amine_primary(9.0~11.0)
C[C@H](N)C(=O)N[C@@H](CC(O)=O)C(=O)N[C@@H](C)C(=O)N[C@@H](CC(O)=O)C(O)=O,8.28,9:22:25:2,carboxylic_acid:carboxylic_acid:carboxylic_acid:amine_primary,L-Alanyl-L-aspartyl-L-alanyl-L-aspartic acid,[HL]/[L][H],0.1,25.0,9:22:25:2,carboxylic_acid:carboxylic_acid:carboxylic_acid:amine_primary,9(carboxylic_acid) > 22(carboxylic_acid) > 25(carboxylic_acid) > 2(amine_primary),amine_primary,carboxylic_acid(1.5~5.0); carboxylic_acid(1.5~5.0); carboxylic_acid(1.5~5.0); amine_primary(9.0~11.0)
C[C@H](N)C(=O)N[C@@H](CC(O)=O)C(=O)N[C@@H](C)C(=O)N[C@@H](CC(O)=O)C(O)=O,4.63,9:22:25:2,carboxylic_acid:carboxylic_acid:carboxylic_acid:amine_primary,L-Alanyl-L-aspartyl-L-alanyl-L-aspartic acid,[H₂L]/[HL][H],0.1,25.0,9:22:25:2,carboxylic_acid:carboxylic_acid:carboxylic_acid:amine_primary,9(carboxylic_acid) > 22(carboxylic_acid) > 25(carboxylic_acid) > 2(amine_primary),carboxylic_acid,carboxylic_acid(1.5~5.0); carboxylic_acid(1.5~5.0); carboxylic_acid(1.5~5.0); amine_primary(9.0~11.0)
C[C@H](N)C(=O)N[C@@H](CC(O)=O)C(=O)N[C@@H](C)C(=O)N[C@@H](CC(O)=O)C(O)=O,3.47,9:22:25:2,carboxylic_acid:carboxylic_acid:carboxylic_acid:amine_primary,L-Alanyl-L-aspartyl-L-alanyl-L-aspartic acid,[H₃L]/[H₂L][H],0.1,25.0,9:22:25:2,carboxylic_acid:carboxylic_acid:carboxylic_acid:amine_primary,9(carboxylic_acid) > 22(carboxylic_acid) > 25(carboxylic_acid) > 2(amine_primary),carboxylic_acid,carboxylic_acid(1.5~5.0); carboxylic_acid(1.5~5.0); carboxylic_acid(1.5~5.0); amine_primary(9.0~11.0)
C[C@H](N)C(=O)N[C@@H](CC(O)=O)C(=O)N[C@@H](C)C(=O)N[C@@H](CC(O)=O)C(O)=O,3.14,9:22:25:2,carboxylic_acid:carboxylic_acid:carboxylic_acid:amine_primary,L-Alanyl-L-aspartyl-L-alanyl-L-aspartic acid,[H₄L]/[H₃L][H],0.1,25.0,9:22:25:2,carboxylic_acid:carboxylic_acid:carboxylic_acid:amine_primary,9(carboxylic_acid) > 22(carboxylic_acid) > 25(carboxylic_acid) > 2(amine_primary),carboxylic_acid,carboxylic_acid(1.5~5.0); carboxylic_acid(1.5~5.0); carboxylic_acid(1.5~5.0); amine_primary(9.0~11.0)
C[C@H](N)C(=O)N[C@@H](C)C(=O)N[C@@H](CC(O)=O)C(=O)N[C@@H](CC(O)=O)C(O)=O,8.31,14:22:25:2,carboxylic_acid:carboxylic_acid:carboxylic_acid:amine_primary,L-Alanyl-L-alanyl-L-aspartyl-L-aspartic acid,[HL]/[L][H],0.1,25.0,14:22:25:2,carboxylic_acid:carboxylic_acid:carboxylic_acid:amine_primary,14(carboxylic_acid) > 22(carboxylic_acid) > 25(carboxylic_acid) > 2(amine_primary),amine_primary,carboxylic_acid(1.5~5.0); carboxylic_acid(1.5~5.0); carboxylic_acid(1.5~5.0); amine_primary(9.0~11.0)
C[C@H](N)C(=O)N[C@@H](C)C(=O)N[C@@H](CC(O)=O)C(=O)N[C@@H](CC(O)=O)C(O)=O,4.67,14:22:25:2,carboxylic_acid:carboxylic_acid:carboxylic_acid:amine_primary,L-Alanyl-L-alanyl-L-aspartyl-L-aspartic acid,[H₂L]/[HL][H],0.1,25.0,14:22:25:2,carboxylic_acid:carboxylic_acid:carboxylic_acid:amine_primary,14(carboxylic_acid) > 22(carboxylic_acid) > 25(carboxylic_acid) > 2(amine_primary),carboxylic_acid,carboxylic_acid(1.5~5.0); carboxylic_acid(1.5~5.0); carboxylic_acid(1.5~5.0); amine_primary(9.0~11.0)
C[C@H](N)C(=O)N[C@@H](C)C(=O)N[C@@H](CC(O)=O)C(=O)N[C@@H](CC(O)=O)C(O)=O,3.51,14:22:25:2,carboxylic_acid:carboxylic_acid:carboxylic_acid:amine_primary,L-Alanyl-L-alanyl-L-aspartyl-L-aspartic acid,[H₃L]/[H₂L][H],0.1,25.0,14:22:25:2,carboxylic_acid:carboxylic_acid:carboxylic_acid:amine_primary,14(carboxylic_acid) > 22(carboxylic_acid) > 25(carboxylic_acid) > 2(amine_primary),carboxylic_acid,carboxylic_acid(1.5~5.0); carboxylic_acid(1.5~5.0); carboxylic_acid(1.5~5.0); amine_primary(9.0~11.0)
C[C@H](N)C(=O)N[C@@H](C)C(=O)N[C@@H](CC(O)=O)C(=O)N[C@@H](CC(O)=O)C(O)=O,3.43,14:22:25:2,carboxylic_acid:carboxylic_acid:carboxylic_acid:amine_primary,L-Alanyl-L-alanyl-L-aspartyl-L-aspartic acid,[H₄L]/[H₃L][H],0.1,25.0,14:22:25:2,carboxylic_acid:carboxylic_acid:carboxylic_acid:amine_primary,14(carboxylic_acid) > 22(carboxylic_acid) > 25(carboxylic_acid) > 2(amine_primary),carboxylic_acid,carboxylic_acid(1.5~5.0); carboxylic_acid(1.5~5.0); carboxylic_acid(1.5~5.0); amine_primary(9.0~11.0)
NCC(=O)N1CCC[C@H]1C(=O)NCC(=O)N[C@@H](Cc2ccc(O)cc2)C(O)=O,9.98,26:0,carboxylic_acid:amine_primary,Glycyl-L-prolylglycyl-L-tyrosine,[HL]/[L][H],0.1,22.0,26:0,carboxylic_acid:amine_primary,26(carboxylic_acid) > 0(amine_primary),amine_primary,carboxylic_acid(1.5~5.0); amine_primary(9.0~11.0)
NCC(=O)N1CCC[C@H]1C(=O)NCC(=O)N[C@@H](Cc2ccc(O)cc2)C(O)=O,8.43,26:0,carboxylic_acid:amine_primary,Glycyl-L-prolylglycyl-L-tyrosine,[H₂L]/[HL][H],0.1,22.0,26:0,carboxylic_acid:amine_primary,26(carboxylic_acid) > 0(amine_primary),amine_primary,carboxylic_acid(1.5~5.0); amine_primary(9.0~11.0)
NCC(=O)N1CCC[C@H]1C(=O)N[C@@H](Cc2ccc(O)cc2)C(=O)NCC(O)=O,10.27,26:0:11,carboxylic_acid:amine_primary:amine_secondary,Glycyl-L-prolyl-L-tyrosylglycine,[HL]/[L][H],0.1,22.0,26:0:11,carboxylic_acid:amine_primary:amine_secondary,26(carboxylic_acid) > 0(amine_primary) > 11(amine_secondary),amine_secondary,carboxylic_acid(1.5~5.0); amine_primary(9.0~11.0); amine_secondary(9.5~11.5)
NCC(=O)N1CCC[C@H]1C(=O)N[C@@H](Cc2ccc(O)cc2)C(=O)NCC(O)=O,8.51,26:0:11,carboxylic_acid:amine_primary:amine_secondary,Glycyl-L-prolyl-L-tyrosylglycine,[H₂L]/[HL][H],0.1,22.0,26:0:11,carboxylic_acid:amine_primary:amine_secondary,26(carboxylic_acid) > 0(amine_primary) > 11(amine_secondary),amine_primary,carboxylic_acid(1.5~5.0); amine_primary(9.0~11.0); amine_secondary(9.5~11.5)
NCC(=O)N1CCC[C@H]1C(=O)N[C@@H](Cc2ccc(O)cc2)C(=O)NCC(O)=O,3.43,26:0:11,carboxylic_acid:amine_primary:amine_secondary,Glycyl-L-prolyl-L-tyrosylglycine,[H₃L]/[H₂L][H],0.1,22.0,26:0:11,carboxylic_acid:amine_primary:amine_secondary,26(carboxylic_acid) > 0(amine_primary) > 11(amine_secondary),carboxylic_acid,carboxylic_acid(1.5~5.0); amine_primary(9.0~11.0); amine_secondary(9.5~11.5)
N[C@@H](Cc1ccc(O)cc1)C(=O)N2CCC[C@H]2C(=O)NCC(=O)NCC(O)=O,9.76,26:0:19,carboxylic_acid:amine_primary:amine_secondary,L-Tyrosyl-L-prolylglycylglycine,[HL]/[L][H],0.1,22.0,26:0:19,carboxylic_acid:amine_primary:amine_secondary,26(carboxylic_acid) > 0(amine_primary) > 19(amine_secondary),amine_primary,carboxylic_acid(1.5~5.0); amine_primary(9.0~11.0); amine_secondary(9.5~11.5)
N[C@@H](Cc1ccc(O)cc1)C(=O)N2CCC[C@H]2C(=O)NCC(=O)NCC(O)=O,7.59,26:0:19,carboxylic_acid:amine_primary:amine_secondary,L-Tyrosyl-L-prolylglycylglycine,[H₂L]/[HL][H],0.1,22.0,26:0:19,carboxylic_acid:amine_primary:amine_secondary,26(carboxylic_acid) > 0(amine_primary) > 19(amine_secondary),amine_primary,carboxylic_acid(1.5~5.0); amine_primary(9.0~11.0); amine_secondary(9.5~11.5)