SMILES,pKa,Dissociable_Atoms,Functional_Group,Name,Equilibrium,Ionic,Temperature,Dissociable_Atoms_Ordered,Functional_Group_Ordered,Dissociation_Order,Dissociating_Group,Functional_Group_pKa_Ranges
NCC(=O)N1CCC[C@H]1C(=O)NCC(=O)N2CCC[C@H]2C(=O)N[C@@H](CCC(O)=O)C(O)=O,4.4,27:30:0,carboxylic_acid:carboxylic_acid:amine_primary,Glycyl-L-prolylglycyl-L-prolylglutamic acid,[H₂L]/[HL][H],0.1,25.0,27:30:0,carboxylic_acid:carboxylic_acid:amine_primary,27(carboxylic_acid) > 30(carboxylic_acid) > 0(amine_primary),carboxylic_acid,carboxylic_acid(1.5~5.0); carboxylic_acid(1.5~5.0); amine_primary(9.0~11.0)
NCC(=O)N1CCC[C@H]1C(=O)NCC(=O)N2CCC[C@H]2C(=O)N[C@@H](CCC(O)=O)C(O)=O,2.46,27:30:0,carboxylic_acid:carboxylic_acid:amine_primary,Glycyl-L-prolylglycyl-L-prolylglutamic acid,[H₃L]/[H₂L][H],0.1,25.0,27:30:0,carboxylic_acid:carboxylic_acid:amine_primary,27(carboxylic_acid) > 30(carboxylic_acid) > 0(amine_primary),carboxylic_acid,carboxylic_acid(1.5~5.0); carboxylic_acid(1.5~5.0); amine_primary(9.0~11.0)
NCC(=O)N1CCC[C@H]1C(=O)NCC(=O)N2CCC[C@H]2C(=O)N[C@@H](CCC(N)=O)C(O)=O,8.29,30:0,carboxylic_acid:amine_primary,Glycyl-L-prolylglycyl-L-prolyl-L-glutamine,[HL]/[L][H],0.1,25.0,30:0,carboxylic_acid:amine_primary,30(carboxylic_acid) > 0(amine_primary),amine_primary,carboxylic_acid(1.5~5.0); amine_primary(9.0~11.0)
NCC(=O)N1CCC[C@H]1C(=O)NCC(=O)N2CCC[C@H]2C(=O)N[C@@H](CCC(N)=O)C(O)=O,3.22,30:0,carboxylic_acid:amine_primary,Glycyl-L-prolylglycyl-L-prolyl-L-glutamine,[H₂L]/[HL][H],0.1,25.0,30:0,carboxylic_acid:amine_primary,30(carboxylic_acid) > 0(amine_primary),carboxylic_acid,carboxylic_acid(1.5~5.0); amine_primary(9.0~11.0)
N[C@@H](CCCNC(N)=N)C(=O)N1CCC[C@H]1C(=O)NCC(=O)N2CCC[C@H]2C(=O)NCC(O)=O,7.47,32:0,carboxylic_acid:amine_primary,L-Arginyl-L-prolylglycyl-L-prolylglycine,[HL]/[L][H],0.1,25.0,32:0,carboxylic_acid:amine_primary,32(carboxylic_acid) > 0(amine_primary),amine_primary,carboxylic_acid(1.5~5.0); amine_primary(9.0~11.0)
N[C@@H](CCCNC(N)=N)C(=O)N1CCC[C@H]1C(=O)NCC(=O)N2CCC[C@H]2C(=O)NCC(O)=O,3.39,32:0,carboxylic_acid:amine_primary,L-Arginyl-L-prolylglycyl-L-prolylglycine,[H₂L]/[HL][H],0.1,25.0,32:0,carboxylic_acid:amine_primary,32(carboxylic_acid) > 0(amine_primary),carboxylic_acid,carboxylic_acid(1.5~5.0); amine_primary(9.0~11.0)
NCC(=O)N1CCC[C@H]1C(=O)N2CCC[C@H]2C(=O)NCC(=O)NCC(O)=O,8.3,25:0,carboxylic_acid:amine_primary,Glycyl-L-prolyl-L-prolylglycylglycine,[HL]/[L][H],0.1,25.0,25:0,carboxylic_acid:amine_primary,25(carboxylic_acid) > 0(amine_primary),amine_primary,carboxylic_acid(1.5~5.0); amine_primary(9.0~11.0)
NCC(=O)N1CCC[C@H]1C(=O)N2CCC[C@H]2C(=O)NCC(=O)NCC(O)=O,3.28,25:0,carboxylic_acid:amine_primary,Glycyl-L-prolyl-L-prolylglycylglycine,[H₂L]/[HL][H],0.1,25.0,25:0,carboxylic_acid:amine_primary,25(carboxylic_acid) > 0(amine_primary),carboxylic_acid,carboxylic_acid(1.5~5.0); amine_primary(9.0~11.0)
N[C@@H](CCC(O)=O)C(=O)N1CCC[C@H]1C(=O)N2CCC[C@H]2C(=O)NCC(=O)NCC(O)=O,7.97,5:30:0,carboxylic_acid:carboxylic_acid:amine_primary,L-Glutamyl-L-prolyl-L-prolylglycylglycine,[HL]/[L][H],0.1,25.0,5:30:0,carboxylic_acid:carboxylic_acid:amine_primary,5(carboxylic_acid) > 30(carboxylic_acid) > 0(amine_primary),amine_primary,carboxylic_acid(1.5~5.0); carboxylic_acid(1.5~5.0); amine_primary(9.0~11.0)
N[C@@H](CCC(O)=O)C(=O)N1CCC[C@H]1C(=O)N2CCC[C@H]2C(=O)NCC(=O)NCC(O)=O,4.2,5:30:0,carboxylic_acid:carboxylic_acid:amine_primary,L-Glutamyl-L-prolyl-L-prolylglycylglycine,[H₂L]/[HL][H],0.1,25.0,5:30:0,carboxylic_acid:carboxylic_acid:amine_primary,5(carboxylic_acid) > 30(carboxylic_acid) > 0(amine_primary),carboxylic_acid,carboxylic_acid(1.5~5.0); carboxylic_acid(1.5~5.0); amine_primary(9.0~11.0)
N[C@@H](CCC(O)=O)C(=O)N1CCC[C@H]1C(=O)N2CCC[C@H]2C(=O)NCC(=O)NCC(O)=O,3.09,5:30:0,carboxylic_acid:carboxylic_acid:amine_primary,L-Glutamyl-L-prolyl-L-prolylglycylglycine,[H₃L]/[H₂L][H],0.1,25.0,5:30:0,carboxylic_acid:carboxylic_acid:amine_primary,5(carboxylic_acid) > 30(carboxylic_acid) > 0(amine_primary),carboxylic_acid,carboxylic_acid(1.5~5.0); carboxylic_acid(1.5~5.0); amine_primary(9.0~11.0)
NCCCC[C@H](NC(=O)[C@@H]1CCCN1C(=O)CN)C(=O)N2CCC[C@H]2C(=O)NCC(O)=O,10.24,30:0:17,carboxylic_acid:amine_primary:amine_primary,Glycyl-L-prolyl-L-lysyl-L-prolylglycine,[HL]/[L][H],0.1,25.0,30:0:17,carboxylic_acid:amine_primary:amine_primary,30(carboxylic_acid) > 0(amine_primary) > 17(amine_primary),amine_primary,carboxylic_acid(1.5~5.0); amine_primary(9.0~11.0); amine_primary(9.0~11.0)
NCCCC[C@H](NC(=O)[C@@H]1CCCN1C(=O)CN)C(=O)N2CCC[C@H]2C(=O)NCC(O)=O,8.12,30:0:17,carboxylic_acid:amine_primary:amine_primary,Glycyl-L-prolyl-L-lysyl-L-prolylglycine,[H₂L]/[HL][H],0.1,25.0,30:0:17,carboxylic_acid:amine_primary:amine_primary,30(carboxylic_acid) > 0(amine_primary) > 17(amine_primary),amine_primary,carboxylic_acid(1.5~5.0); amine_primary(9.0~11.0); amine_primary(9.0~11.0)
NCCCC[C@H](NC(=O)[C@@H]1CCCN1C(=O)CN)C(=O)N2CCC[C@H]2C(=O)NCC(O)=O,3.41,30:0:17,carboxylic_acid:amine_primary:amine_primary,Glycyl-L-prolyl-L-lysyl-L-prolylglycine,[H₃L]/[H₂L][H],0.1,25.0,30:0:17,carboxylic_acid:amine_primary:amine_primary,30(carboxylic_acid) > 0(amine_primary) > 17(amine_primary),carboxylic_acid,carboxylic_acid(1.5~5.0); amine_primary(9.0~11.0); amine_primary(9.0~11.0)
NCCCC[C@H](NC(=O)[C@@H]1CCCN1C(=O)[C@@H](N)CCCNC(N)=N)C(=O)N2CCC[C@H]2C(=O)N[C@@H](CCC(N)=O)C(O)=O,9.85,42:0:17,carboxylic_acid:amine_primary:amine_primary,L-Arginyl-L-prolyl-L-lysyl-L-prolyl-L-glutamine,[HL]/[L][H],0.1,25.0,42:0:17,carboxylic_acid:amine_primary:amine_primary,42(carboxylic_acid) > 0(amine_primary) > 17(amine_primary),amine_primary,carboxylic_acid(1.5~5.0); amine_primary(9.0~11.0); amine_primary(9.0~11.0)
NCCCC[C@H](NC(=O)[C@@H]1CCCN1C(=O)[C@@H](N)CCCNC(N)=N)C(=O)N2CCC[C@H]2C(=O)N[C@@H](CCC(N)=O)C(O)=O,7.27,42:0:17,carboxylic_acid:amine_primary:amine_primary,L-Arginyl-L-prolyl-L-lysyl-L-prolyl-L-glutamine,[H₂L]/[HL][H],0.1,25.0,42:0:17,carboxylic_acid:amine_primary:amine_primary,42(carboxylic_acid) > 0(amine_primary) > 17(amine_primary),amine_primary,carboxylic_acid(1.5~5.0); amine_primary(9.0~11.0); amine_primary(9.0~11.0)
NCCCC[C@H](NC(=O)[C@@H]1CCCN1C(=O)[C@@H](N)CCCNC(N)=N)C(=O)N2CCC[C@H]2C(=O)N[C@@H](CCC(N)=O)C(O)=O,4.0,42:0:17,carboxylic_acid:amine_primary:amine_primary,L-Arginyl-L-prolyl-L-lysyl-L-prolyl-L-glutamine,[H₃L]/[H₂L][H],0.1,25.0,42:0:17,carboxylic_acid:amine_primary:amine_primary,42(carboxylic_acid) > 0(amine_primary) > 17(amine_primary),carboxylic_acid,carboxylic_acid(1.5~5.0); amine_primary(9.0~11.0); amine_primary(9.0~11.0)
N[C@@H](Cc1ccc(O)cc1)C(=O)N2CCC[C@H]2C(=O)N[C@@H](Cc3ccccc3)C(=O)N4CCC[C@H]4C(=O)NCC(O)=O,9.81,40:0:19,carboxylic_acid:amine_primary:amine_secondary,L-Tyrosyl-L-prolyl-L-phenylalanyl-L-prolylglycine,[HL]/[L][H],0.1,25.0,40:0:19,carboxylic_acid:amine_primary:amine_secondary,40(carboxylic_acid) > 0(amine_primary) > 19(amine_secondary),amine_primary,carboxylic_acid(1.5~5.0); amine_primary(9.0~11.0); amine_secondary(9.5~11.5)
N[C@@H](Cc1ccc(O)cc1)C(=O)N2CCC[C@H]2C(=O)N[C@@H](Cc3ccccc3)C(=O)N4CCC[C@H]4C(=O)NCC(O)=O,7.42,40:0:19,carboxylic_acid:amine_primary:amine_secondary,L-Tyrosyl-L-prolyl-L-phenylalanyl-L-prolylglycine,[H₂L]/[HL][H],0.1,25.0,40:0:19,carboxylic_acid:amine_primary:amine_secondary,40(carboxylic_acid) > 0(amine_primary) > 19(amine_secondary),amine_primary,carboxylic_acid(1.5~5.0); amine_primary(9.0~11.0); amine_secondary(9.5~11.5)
N[C@@H](Cc1ccc(O)cc1)C(=O)N2CCC[C@H]2C(=O)N[C@@H](Cc3ccccc3)C(=O)N4CCC[C@H]4C(=O)NCC(O)=O,3.36,40:0:19,carboxylic_acid:amine_primary:amine_secondary,L-Tyrosyl-L-prolyl-L-phenylalanyl-L-prolylglycine,[H₃L]/[H₂L][H],0.1,25.0,40:0:19,carboxylic_acid:amine_primary:amine_secondary,40(carboxylic_acid) > 0(amine_primary) > 19(amine_secondary),carboxylic_acid,carboxylic_acid(1.5~5.0); amine_primary(9.0~11.0); amine_secondary(9.5~11.5)
CC(C)CC(NC(=O)C(Cc1ccccc1)NC(=O)CNC(=O)CNC(=O)C(N)Cc2ccc(O)cc2)C(O)=O,9.59,38:28:5,carboxylic_acid:amine_primary:amine_secondary,L-Tyrosylglycylglycyl-L-phenylalanyl-L-leucine (Leucine enkephalin),[HL]/[L][H],0.1,25.0,38:28:5,carboxylic_acid:amine_primary:amine_secondary,38(carboxylic_acid) > 28(amine_primary) > 5(amine_secondary),amine_primary,carboxylic_acid(1.5~5.0); amine_primary(9.0~11.0); amine_secondary(9.5~11.5)
CC(C)CC(NC(=O)C(Cc1ccccc1)NC(=O)CNC(=O)CNC(=O)C(N)Cc2ccc(O)cc2)C(O)=O,7.77,38:28:5,carboxylic_acid:amine_primary:amine_secondary,L-Tyrosylglycylglycyl-L-phenylalanyl-L-leucine (Leucine enkephalin),[H₂L]/[HL][H],0.1,25.0,38:28:5,carboxylic_acid:amine_primary:amine_secondary,38(carboxylic_acid) > 28(amine_primary) > 5(amine_secondary),amine_primary,carboxylic_acid(1.5~5.0); amine_primary(9.0~11.0); amine_secondary(9.5~11.5)
CC(C)CC(NC(=O)C(Cc1ccccc1)NC(=O)CNC(=O)CNC(=O)C(N)Cc2ccc(O)cc2)C(O)=O,3.52,38:28:5,carboxylic_acid:amine_primary:amine_secondary,L-Tyrosylglycylglycyl-L-phenylalanyl-L-leucine (Leucine enkephalin),[H₃L]/[H₂L][H],0.1,25.0,38:28:5,carboxylic_acid:amine_primary:amine_secondary,38(carboxylic_acid) > 28(amine_primary) > 5(amine_secondary),carboxylic_acid,carboxylic_acid(1.5~5.0); amine_primary(9.0~11.0); amine_secondary(9.5~11.5)
CSCC[C@H](NC(=O)[C@H](Cc1ccccc1)NC(=O)CNC(=O)CNC(=O)[C@@H](N)Cc2ccc(O)cc2)C(O)=O,9.82,38:28:5,carboxylic_acid:amine_primary:amine_secondary,L-Tyrosylglycylglycyl-L-phenylalanyl-L-methionine (Methionine enkephalin),[HL]/[L][H],0.1,25.0,38:28:5,carboxylic_acid:amine_primary:amine_secondary,38(carboxylic_acid) > 28(amine_primary) > 5(amine_secondary),amine_primary,carboxylic_acid(1.5~5.0); amine_primary(9.0~11.0); amine_secondary(9.5~11.5)
CSCC[C@H](NC(=O)[C@H](Cc1ccccc1)NC(=O)CNC(=O)CNC(=O)[C@@H](N)Cc2ccc(O)cc2)C(O)=O,7.44,38:28:5,carboxylic_acid:amine_primary:amine_secondary,L-Tyrosylglycylglycyl-L-phenylalanyl-L-methionine (Methionine enkephalin),[H₂L]/[HL][H],0.1,25.0,38:28:5,carboxylic_acid:amine_primary:amine_secondary,38(carboxylic_acid) > 28(amine_primary) > 5(amine_secondary),amine_primary,carboxylic_acid(1.5~5.0); amine_primary(9.0~11.0); amine_secondary(9.5~11.5)
CSCC[C@H](NC(=O)[C@H](Cc1ccccc1)NC(=O)CNC(=O)CNC(=O)[C@@H](N)Cc2ccc(O)cc2)C(O)=O,3.46,38:28:5,carboxylic_acid:amine_primary:amine_secondary,L-Tyrosylglycylglycyl-L-phenylalanyl-L-methionine (Methionine enkephalin),[H₃L]/[H₂L][H],0.1,25.0,38:28:5,carboxylic_acid:amine_primary:amine_secondary,38(carboxylic_acid) > 28(amine_primary) > 5(amine_secondary),carboxylic_acid,carboxylic_acid(1.5~5.0); amine_primary(9.0~11.0); amine_secondary(9.5~11.5)
CC(C)C[C@H](NC(=O)[C@@H](N)C(C)C)C(=O)N[C@@H](CO)C(=O)N[C@@H](CCC(O)=O)C(=O)NCC(O)=O,7.74,26:33:9,carboxylic_acid:carboxylic_acid:amine_primary,L-Valyl-L-leucyl-L-seryl-L-glutamylglycine,[HL]/[L][H],0.1,25.0,26:33:9,carboxylic_acid:carboxylic_acid:amine_primary,26(carboxylic_acid) > 33(carboxylic_acid) > 9(amine_primary),amine_primary,carboxylic_acid(1.5~5.0); carboxylic_acid(1.5~5.0); amine_primary(9.0~11.0)
CC(C)C[C@H](NC(=O)[C@@H](N)C(C)C)C(=O)N[C@@H](CO)C(=O)N[C@@H](CCC(O)=O)C(=O)NCC(O)=O,4.49,26:33:9,carboxylic_acid:carboxylic_acid:amine_primary,L-Valyl-L-leucyl-L-seryl-L-glutamylglycine,[H₂L]/[HL][H],0.1,25.0,26:33:9,carboxylic_acid:carboxylic_acid:amine_primary,26(carboxylic_acid) > 33(carboxylic_acid) > 9(amine_primary),carboxylic_acid,carboxylic_acid(1.5~5.0); carboxylic_acid(1.5~5.0); amine_primary(9.0~11.0)
CC(C)C[C@H](NC(=O)[C@@H](N)C(C)C)C(=O)N[C@@H](CO)C(=O)N[C@@H](CCC(O)=O)C(=O)NCC(O)=O,3.28,26:33:9,carboxylic_acid:carboxylic_acid:amine_primary,L-Valyl-L-leucyl-L-seryl-L-glutamylglycine,[H₃L]/[H₂L][H],0.1,25.0,26:33:9,carboxylic_acid:carboxylic_acid:amine_primary,26(carboxylic_acid) > 33(carboxylic_acid) > 9(amine_primary),carboxylic_acid,carboxylic_acid(1.5~5.0); carboxylic_acid(1.5~5.0); amine_primary(9.0~11.0)
C[C@H](N)C(=O)N[C@@H](CCCCN)C(=O)N[C@@H](C)C(=O)N[C@@H](C)C(=O)N[C@@H](C)C(O)=O,10.24,28:2:11,carboxylic_acid:amine_primary:amine_primary,L-Alanyl-L-lysyl-L-alanyl-L-alanyl-L-alanine,[HL]/[L][H],0.1,25.0,28:2:11,carboxylic_acid:amine_primary:amine_primary,28(carboxylic_acid) > 2(amine_primary) > 11(amine_primary),amine_primary,carboxylic_acid(1.5~5.0); amine_primary(9.0~11.0); amine_primary(9.0~11.0)
C[C@H](N)C(=O)N[C@@H](CCCCN)C(=O)N[C@@H](C)C(=O)N[C@@H](C)C(=O)N[C@@H](C)C(O)=O,7.64,28:2:11,carboxylic_acid:amine_primary:amine_primary,L-Alanyl-L-lysyl-L-alanyl-L-alanyl-L-alanine,[H₂L]/[HL][H],0.1,25.0,28:2:11,carboxylic_acid:amine_primary:amine_primary,28(carboxylic_acid) > 2(amine_primary) > 11(amine_primary),amine_primary,carboxylic_acid(1.5~5.0); amine_primary(9.0~11.0); amine_primary(9.0~11.0)
C[C@H](N)C(=O)N[C@@H](CCCCN)C(=O)N[C@@H](C)C(=O)N[C@@H](C)C(=O)N[C@@H](C)C(O)=O,3.42,28:2:11,carboxylic_acid:amine_primary:amine_primary,L-Alanyl-L-lysyl-L-alanyl-L-alanyl-L-alanine,[H₃L]/[H₂L][H],0.1,25.0,28:2:11,carboxylic_acid:amine_primary:amine_primary,28(carboxylic_acid) > 2(amine_primary) > 11(amine_primary),carboxylic_acid,carboxylic_acid(1.5~5.0); amine_primary(9.0~11.0); amine_primary(9.0~11.0)
C[C@H](N)C(=O)N[C@H](CCCCN)C(=O)N[C@@H](C)C(=O)N[C@@H](C)C(=O)N[C@@H](C)C(O)=O,10.18,28:2:11,carboxylic_acid:amine_primary:amine_primary,L-Alanyl-D-lysyl-L-alanyl-L-alanyl-L-alanine,[HL]/[L][H],0.1,25.0,28:2:11,carboxylic_acid:amine_primary:amine_primary,28(carboxylic_acid) > 2(amine_primary) > 11(amine_primary),amine_primary,carboxylic_acid(1.5~5.0); amine_primary(9.0~11.0); amine_primary(9.0~11.0)
C[C@H](N)C(=O)N[C@H](CCCCN)C(=O)N[C@@H](C)C(=O)N[C@@H](C)C(=O)N[C@@H](C)C(O)=O,7.74,28:2:11,carboxylic_acid:amine_primary:amine_primary,L-Alanyl-D-lysyl-L-alanyl-L-alanyl-L-alanine,[H₂L]/[HL][H],0.1,25.0,28:2:11,carboxylic_acid:amine_primary:amine_primary,28(carboxylic_acid) > 2(amine_primary) > 11(amine_primary),amine_primary,carboxylic_acid(1.5~5.0); amine_primary(9.0~11.0); amine_primary(9.0~11.0)
C[C@H](N)C(=O)N[C@H](CCCCN)C(=O)N[C@@H](C)C(=O)N[C@@H](C)C(=O)N[C@@H](C)C(O)=O,3.19,28:2:11,carboxylic_acid:amine_primary:amine_primary,L-Alanyl-D-lysyl-L-alanyl-L-alanyl-L-alanine,[H₃L]/[H₂L][H],0.1,25.0,28:2:11,carboxylic_acid:amine_primary:amine_primary,28(carboxylic_acid) > 2(amine_primary) > 11(amine_primary),carboxylic_acid,carboxylic_acid(1.5~5.0); amine_primary(9.0~11.0); amine_primary(9.0~11.0)
NCC(=O)NCC(=O)N[C@@H](Cc1c[nH]cn1)C(=O)NCC(=O)NCC(O)=O,7.42,25:0:4,carboxylic_acid:amine_primary:amine_secondary,Glycylglycyl-L-histidylglycylglycine,[HL]/[L][H],0.15,37.0,25:0:4,carboxylic_acid:amine_primary:amine_secondary,25(carboxylic_acid) > 0(amine_primary) > 4(amine_secondary),amine_primary,carboxylic_acid(1.5~5.0); amine_primary(9.0~11.0); amine_secondary(9.5~11.5)
NCC(=O)NCC(=O)N[C@@H](Cc1c[nH]cn1)C(=O)NCC(=O)NCC(O)=O,6.03,25:0:4,carboxylic_acid:amine_primary:amine_secondary,Glycylglycyl-L-histidylglycylglycine,[H₂L]/[HL][H],0.15,37.0,25:0:4,carboxylic_acid:amine_primary:amine_secondary,25(carboxylic_acid) > 0(amine_primary) > 4(amine_secondary),carboxylic_acid,carboxylic_acid(1.5~5.0); amine_primary(9.0~11.0); amine_secondary(9.5~11.5)
NCC(=O)NCC(=O)N[C@@H](Cc1c[nH]cn1)C(=O)NCC(=O)NCC(O)=O,3.14,25:0:4,carboxylic_acid:amine_primary:amine_secondary,Glycylglycyl-L-histidylglycylglycine,[H₃L]/[H₂L][H],0.15,37.0,25:0:4,carboxylic_acid:amine_primary:amine_secondary,25(carboxylic_acid) > 0(amine_primary) > 4(amine_secondary),carboxylic_acid,carboxylic_acid(1.5~5.0); amine_primary(9.0~11.0); amine_secondary(9.5~11.5)
CC(C)[C@H](NC(=O)[C@H](CC(O)=O)NC(=O)[C@H](CCCCN)NC(=O)[C@@H](N)CCCNC(N)=N)C(=O)N[C@@H](Cc1ccc(O)cc1)C(O)=O,10.38,10:46:20:25:31,carboxylic_acid:carboxylic_acid:amine_primary:amine_primary:amine_primary,L-Arginyl-L-lysyl-L-aspartyl-L-valyl-L-tyrosine,[HL]/[L][H],0.1,25.0,10:46:20:25:31,carboxylic_acid:carboxylic_acid:amine_primary:amine_primary:amine_primary,10(carboxylic_acid) > 46(carboxylic_acid) > 20(amine_primary) > 25(amine_primary) > 31(amine_primary),amine_primary,carboxylic_acid(1.5~5.0); carboxylic_acid(1.5~5.0); amine_primary(9.0~11.0); amine_primary(9.0~11.0); amine_primary(9.0~11.0)
CC(C)[C@H](NC(=O)[C@H](CC(O)=O)NC(=O)[C@H](CCCCN)NC(=O)[C@@H](N)CCCNC(N)=N)C(=O)N[C@@H](Cc1ccc(O)cc1)C(O)=O,9.75,10:46:20:25:31,carboxylic_acid:carboxylic_acid:amine_primary:amine_primary:amine_primary,L-Arginyl-L-lysyl-L-aspartyl-L-valyl-L-tyrosine,[H₂L]/[HL][H],0.1,25.0,10:46:20:25:31,carboxylic_acid:carboxylic_acid:amine_primary:amine_primary:amine_primary,10(carboxylic_acid) > 46(carboxylic_acid) > 20(amine_primary) > 25(amine_primary) > 31(amine_primary),amine_primary,carboxylic_acid(1.5~5.0); carboxylic_acid(1.5~5.0); amine_primary(9.0~11.0); amine_primary(9.0~11.0); amine_primary(9.0~11.0)
CC(C)[C@H](NC(=O)[C@H](CC(O)=O)NC(=O)[C@H](CCCCN)NC(=O)[C@@H](N)CCCNC(N)=N)C(=O)N[C@@H](Cc1ccc(O)cc1)C(O)=O,7.2,10:46:20:25:31,carboxylic_acid:carboxylic_acid:amine_primary:amine_primary:amine_primary,L-Arginyl-L-lysyl-L-aspartyl-L-valyl-L-tyrosine,[H₃L]/[H₂L][H],0.1,25.0,10:46:20:25:31,carboxylic_acid:carboxylic_acid:amine_primary:amine_primary:amine_primary,10(carboxylic_acid) > 46(carboxylic_acid) > 20(amine_primary) > 25(amine_primary) > 31(amine_primary),amine_primary,carboxylic_acid(1.5~5.0); carboxylic_acid(1.5~5.0); amine_primary(9.0~11.0); amine_primary(9.0~11.0); amine_primary(9.0~11.0)
CC(C)[C@H](NC(=O)[C@H](CC(O)=O)NC(=O)[C@H](CCCCN)NC(=O)[C@@H](N)CCCNC(N)=N)C(=O)N[C@@H](Cc1ccc(O)cc1)C(O)=O,3.25,10:46:20:25:31,carboxylic_acid:carboxylic_acid:amine_primary:amine_primary:amine_primary,L-Arginyl-L-lysyl-L-aspartyl-L-valyl-L-tyrosine,[H₄L]/[H₃L][H],0.1,25.0,10:46:20:25:31,carboxylic_acid:carboxylic_acid:amine_primary:amine_primary:amine_primary,10(carboxylic_acid) > 46(carboxylic_acid) > 20(amine_primary) > 25(amine_primary) > 31(amine_primary),carboxylic_acid,carboxylic_acid(1.5~5.0); carboxylic_acid(1.5~5.0); amine_primary(9.0~11.0); amine_primary(9.0~11.0); amine_primary(9.0~11.0)
CC(C)[C@H](NC(=O)[C@H](CC(O)=O)NC(=O)[C@H](CCCCN)NC(=O)[C@@H](N)CCCNC(N)=N)C(=O)N[C@@H](Cc1ccc(O)cc1)C(O)=O,1.9,10:46:20:25:31,carboxylic_acid:carboxylic_acid:amine_primary:amine_primary:amine_primary,L-Arginyl-L-lysyl-L-aspartyl-L-valyl-L-tyrosine,[H₅L]/[H₄L][H],0.1,25.0,10:46:20:25:31,carboxylic_acid:carboxylic_acid:amine_primary:amine_primary:amine_primary,10(carboxylic_acid) > 46(carboxylic_acid) > 20(amine_primary) > 25(amine_primary) > 31(amine_primary),carboxylic_acid,carboxylic_acid(1.5~5.0); carboxylic_acid(1.5~5.0); amine_primary(9.0~11.0); amine_primary(9.0~11.0); amine_primary(9.0~11.0)
N[C@@H](CCC(=O)N[C@@H](CSSC[C@H](NC(=O)CC[C@H](N)C(O)=O)C(=O)NCC(O)=O)C(=O)NCC(O)=O)C(O)=O,9.81,21:28:35:38:0:19,carboxylic_acid:carboxylic_acid:carboxylic_acid:carboxylic_acid:amine_primary:amine_primary,"N,N-[N'',N''''-Di(L-5-glutamyl)-L-cystinyl]di(glycine) (Oxidized glutathione) (Glutathione disulfide)",[HL]/[L][H],0.1,25.0,21:28:35:38:0:19,carboxylic_acid:carboxylic_acid:carboxylic_acid:carboxylic_acid:amine_primary:amine_primary,21(carboxylic_acid) > 28(carboxylic_acid) > 35(carboxylic_acid) > 38(carboxylic_acid) > 0(amine_primary) > 19(amine_primary),amine_primary,carboxylic_acid(1.5~5.0); carboxylic_acid(1.5~5.0); carboxylic_acid(1.5~5.0); carboxylic_acid(1.5~5.0); amine_primary(9.0~11.0); amine_primary(9.0~11.0)
N[C@@H](CCC(=O)N[C@@H](CSSC[C@H](NC(=O)CC[C@H](N)C(O)=O)C(=O)NCC(O)=O)C(=O)NCC(O)=O)C(O)=O,9.16,21:28:35:38:0:19,carboxylic_acid:carboxylic_acid:carboxylic_acid:carboxylic_acid:amine_primary:amine_primary,"N,N-[N'',N''''-Di(L-5-glutamyl)-L-cystinyl]di(glycine) (Oxidized glutathione) (Glutathione disulfide)",[HL]/[L][H],0.15,37.0,21:28:35:38:0:19,carboxylic_acid:carboxylic_acid:carboxylic_acid:carboxylic_acid:amine_primary:amine_primary,21(carboxylic_acid) > 28(carboxylic_acid) > 35(carboxylic_acid) > 38(carboxylic_acid) > 0(amine_primary) > 19(amine_primary),amine_primary,carboxylic_acid(1.5~5.0); carboxylic_acid(1.5~5.0); carboxylic_acid(1.5~5.0); carboxylic_acid(1.5~5.0); amine_primary(9.0~11.0); amine_primary(9.0~11.0)