SMILES,pKa,Dissociable_Atoms,Functional_Group,Name,Equilibrium,Ionic,Temperature,Dissociable_Atoms_Ordered,Functional_Group_Ordered,Dissociation_Order,Dissociating_Group,Functional_Group_pKa_Ranges
NCCCCCN,10.05,0:6,amine_primary:amine_primary,Pentamethylenediamine (Cadaverine),[H₂L]/[HL][H],0.5,25.0,0:6,amine_primary:amine_primary,0(amine_primary) > 6(amine_primary),amine_primary,amine_primary(9.0~11.0); amine_primary(9.0~11.0)
NCCCCCN,10.26,0:6,amine_primary:amine_primary,Pentamethylenediamine (Cadaverine),[H₂L]/[HL][H],1.0,25.0,0:6,amine_primary:amine_primary,0(amine_primary) > 6(amine_primary),amine_primary,amine_primary(9.0~11.0); amine_primary(9.0~11.0)
NCCCCCN,9.56,0:6,amine_primary:amine_primary,Pentamethylenediamine (Cadaverine),[H₂L]/[HL][H],0.0,25.0,0:6,amine_primary:amine_primary,0(amine_primary) > 6(amine_primary),amine_primary,amine_primary(9.0~11.0); amine_primary(9.0~11.0)
NCCCCCCN,10.95,0:7,amine_primary:amine_primary,Hexamethylenediamine,[HL]/[L][H],0.1,25.0,0:7,amine_primary:amine_primary,0(amine_primary) > 7(amine_primary),amine_primary,amine_primary(9.0~11.0); amine_primary(9.0~11.0)
NCCCCCCN,11.04,0:7,amine_primary:amine_primary,Hexamethylenediamine,[HL]/[L][H],0.5,25.0,0:7,amine_primary:amine_primary,0(amine_primary) > 7(amine_primary),amine_primary,amine_primary(9.0~11.0); amine_primary(9.0~11.0)
NCCCCCCN,11.22,0:7,amine_primary:amine_primary,Hexamethylenediamine,[HL]/[L][H],1.0,25.0,0:7,amine_primary:amine_primary,0(amine_primary) > 7(amine_primary),amine_primary,amine_primary(9.0~11.0); amine_primary(9.0~11.0)
NCCCCCCN,10.93,0:7,amine_primary:amine_primary,Hexamethylenediamine,[HL]/[L][H],0.0,25.0,0:7,amine_primary:amine_primary,0(amine_primary) > 7(amine_primary),amine_primary,amine_primary(9.0~11.0); amine_primary(9.0~11.0)
NCCCCCCN,10.07,0:7,amine_primary:amine_primary,Hexamethylenediamine,[H₂L]/[HL][H],0.1,25.0,0:7,amine_primary:amine_primary,0(amine_primary) > 7(amine_primary),amine_primary,amine_primary(9.0~11.0); amine_primary(9.0~11.0)
NCCCCCCN,10.28,0:7,amine_primary:amine_primary,Hexamethylenediamine,[H₂L]/[HL][H],0.5,25.0,0:7,amine_primary:amine_primary,0(amine_primary) > 7(amine_primary),amine_primary,amine_primary(9.0~11.0); amine_primary(9.0~11.0)
NCCCCCCN,10.48,0:7,amine_primary:amine_primary,Hexamethylenediamine,[H₂L]/[HL][H],1.0,25.0,0:7,amine_primary:amine_primary,0(amine_primary) > 7(amine_primary),amine_primary,amine_primary(9.0~11.0); amine_primary(9.0~11.0)
NCCCCCCN,9.83,0:7,amine_primary:amine_primary,Hexamethylenediamine,[H₂L]/[HL][H],0.0,25.0,0:7,amine_primary:amine_primary,0(amine_primary) > 7(amine_primary),amine_primary,amine_primary(9.0~11.0); amine_primary(9.0~11.0)
NCCCCCCCCN,10.99,0:9,amine_primary:amine_primary,Octamethylenediamine,[HL]/[L][H],0.1,25.0,0:9,amine_primary:amine_primary,0(amine_primary) > 9(amine_primary),amine_primary,amine_primary(9.0~11.0); amine_primary(9.0~11.0)
NCCCCCCCCN,11.12,0:9,amine_primary:amine_primary,Octamethylenediamine,[HL]/[L][H],0.5,25.0,0:9,amine_primary:amine_primary,0(amine_primary) > 9(amine_primary),amine_primary,amine_primary(9.0~11.0); amine_primary(9.0~11.0)
NCCCCCCCCN,11.28,0:9,amine_primary:amine_primary,Octamethylenediamine,[HL]/[L][H],1.0,25.0,0:9,amine_primary:amine_primary,0(amine_primary) > 9(amine_primary),amine_primary,amine_primary(9.0~11.0); amine_primary(9.0~11.0)
NCCCCCCCCN,10.93,0:9,amine_primary:amine_primary,Octamethylenediamine,[HL]/[L][H],0.0,25.0,0:9,amine_primary:amine_primary,0(amine_primary) > 9(amine_primary),amine_primary,amine_primary(9.0~11.0); amine_primary(9.0~11.0)
NCCCCCCCCN,10.17,0:9,amine_primary:amine_primary,Octamethylenediamine,[H₂L]/[HL][H],0.1,25.0,0:9,amine_primary:amine_primary,0(amine_primary) > 9(amine_primary),amine_primary,amine_primary(9.0~11.0); amine_primary(9.0~11.0)
NCCCCCCCCN,10.42,0:9,amine_primary:amine_primary,Octamethylenediamine,[H₂L]/[HL][H],0.5,25.0,0:9,amine_primary:amine_primary,0(amine_primary) > 9(amine_primary),amine_primary,amine_primary(9.0~11.0); amine_primary(9.0~11.0)
NCCCCCCCCN,10.55,0:9,amine_primary:amine_primary,Octamethylenediamine,[H₂L]/[HL][H],1.0,25.0,0:9,amine_primary:amine_primary,0(amine_primary) > 9(amine_primary),amine_primary,amine_primary(9.0~11.0); amine_primary(9.0~11.0)
NCCCCCCCCN,9.95,0:9,amine_primary:amine_primary,Octamethylenediamine,[H₂L]/[HL][H],0.0,25.0,0:9,amine_primary:amine_primary,0(amine_primary) > 9(amine_primary),amine_primary,amine_primary(9.0~11.0); amine_primary(9.0~11.0)
NC1(CCCCC1)C2(N)CCCCC2,10.41,0:8,amine_primary:amine_primary,"Bicyclohexyl-1,1'-diamine",[HL]/[L][H],0.1,20.0,0:8,amine_primary:amine_primary,0(amine_primary) > 8(amine_primary),amine_primary,amine_primary(9.0~11.0); amine_primary(9.0~11.0)
NC1(CCCCC1)C2(N)CCCCC2,5.62,0:8,amine_primary:amine_primary,"Bicyclohexyl-1,1'-diamine",[H₂L]/[HL][H],0.1,20.0,0:8,amine_primary:amine_primary,0(amine_primary) > 8(amine_primary),amine_primary,amine_primary(9.0~11.0); amine_primary(9.0~11.0)
NCC(O)CN,9.56,0:5,amine_primary:amine_primary,"1,3-Diamino-2-propanol (2-Hydroxytrimethylenediamine)",[HL]/[L][H],0.1,25.0,0:5,amine_primary:amine_primary,0(amine_primary) > 5(amine_primary),amine_primary,amine_primary(9.0~11.0); amine_primary(9.0~11.0)
NCC(O)CN,9.68,0:5,amine_primary:amine_primary,"1,3-Diamino-2-propanol (2-Hydroxytrimethylenediamine)",[HL]/[L][H],0.5,25.0,0:5,amine_primary:amine_primary,0(amine_primary) > 5(amine_primary),amine_primary,amine_primary(9.0~11.0); amine_primary(9.0~11.0)
NCC(O)CN,9.82,0:5,amine_primary:amine_primary,"1,3-Diamino-2-propanol (2-Hydroxytrimethylenediamine)",[HL]/[L][H],1.0,25.0,0:5,amine_primary:amine_primary,0(amine_primary) > 5(amine_primary),amine_primary,amine_primary(9.0~11.0); amine_primary(9.0~11.0)
NCC(O)CN,10.08,0:5,amine_primary:amine_primary,"1,3-Diamino-2-propanol (2-Hydroxytrimethylenediamine)",[HL]/[L][H],2.0,25.0,0:5,amine_primary:amine_primary,0(amine_primary) > 5(amine_primary),amine_primary,amine_primary(9.0~11.0); amine_primary(9.0~11.0)
NCC(O)CN,10.4,0:5,amine_primary:amine_primary,"1,3-Diamino-2-propanol (2-Hydroxytrimethylenediamine)",[HL]/[L][H],3.0,25.0,0:5,amine_primary:amine_primary,0(amine_primary) > 5(amine_primary),amine_primary,amine_primary(9.0~11.0); amine_primary(9.0~11.0)
NCC(O)CN,9.55,0:5,amine_primary:amine_primary,"1,3-Diamino-2-propanol (2-Hydroxytrimethylenediamine)",[HL]/[L][H],0.0,25.0,0:5,amine_primary:amine_primary,0(amine_primary) > 5(amine_primary),amine_primary,amine_primary(9.0~11.0); amine_primary(9.0~11.0)
NCC(O)CN,8.02,0:5,amine_primary:amine_primary,"1,3-Diamino-2-propanol (2-Hydroxytrimethylenediamine)",[H₂L]/[HL][H],0.1,25.0,0:5,amine_primary:amine_primary,0(amine_primary) > 5(amine_primary),amine_primary,amine_primary(9.0~11.0); amine_primary(9.0~11.0)
NCC(O)CN,8.19,0:5,amine_primary:amine_primary,"1,3-Diamino-2-propanol (2-Hydroxytrimethylenediamine)",[H₂L]/[HL][H],0.5,25.0,0:5,amine_primary:amine_primary,0(amine_primary) > 5(amine_primary),amine_primary,amine_primary(9.0~11.0); amine_primary(9.0~11.0)
NCC(O)CN,8.36,0:5,amine_primary:amine_primary,"1,3-Diamino-2-propanol (2-Hydroxytrimethylenediamine)",[H₂L]/[HL][H],1.0,25.0,0:5,amine_primary:amine_primary,0(amine_primary) > 5(amine_primary),amine_primary,amine_primary(9.0~11.0); amine_primary(9.0~11.0)
NCC(O)CN,8.62,0:5,amine_primary:amine_primary,"1,3-Diamino-2-propanol (2-Hydroxytrimethylenediamine)",[H₂L]/[HL][H],2.0,25.0,0:5,amine_primary:amine_primary,0(amine_primary) > 5(amine_primary),amine_primary,amine_primary(9.0~11.0); amine_primary(9.0~11.0)
NCC(O)CN,8.89,0:5,amine_primary:amine_primary,"1,3-Diamino-2-propanol (2-Hydroxytrimethylenediamine)",[H₂L]/[HL][H],3.0,25.0,0:5,amine_primary:amine_primary,0(amine_primary) > 5(amine_primary),amine_primary,amine_primary(9.0~11.0); amine_primary(9.0~11.0)
NCC(O)CN,7.78,0:5,amine_primary:amine_primary,"1,3-Diamino-2-propanol (2-Hydroxytrimethylenediamine)",[H₂L]/[HL][H],0.0,25.0,0:5,amine_primary:amine_primary,0(amine_primary) > 5(amine_primary),amine_primary,amine_primary(9.0~11.0); amine_primary(9.0~11.0)
COC(=O)C(N)CCCN,8.32,5:9,amine_primary:amine_primary,"DL-2,5-Diaminopentanoic acid methyl ester (DL-Ornithine methyl ester)",[HL]/[L][H],0.1,25.0,5:9,amine_primary:amine_primary,5(amine_primary) > 9(amine_primary),amine_primary,amine_primary(9.0~11.0); amine_primary(9.0~11.0)
COC(=O)C(N)CCCN,6.73,5:9,amine_primary:amine_primary,"DL-2,5-Diaminopentanoic acid methyl ester (DL-Ornithine methyl ester)",[H₂L]/[HL][H],0.1,25.0,5:9,amine_primary:amine_primary,5(amine_primary) > 9(amine_primary),amine_primary,amine_primary(9.0~11.0); amine_primary(9.0~11.0)
COC(=O)C(N)CCCCN,10.25,5:10,amine_primary:amine_primary,"DL-2,6-Diaminohexanoic acid methyl ester (DL-Lysine methyl ester)",[HL]/[L][H],0.1,25.0,5:10,amine_primary:amine_primary,5(amine_primary) > 10(amine_primary),amine_primary,amine_primary(9.0~11.0); amine_primary(9.0~11.0)
COC(=O)C(N)CCCCN,9.9,5:10,amine_primary:amine_primary,"DL-2,6-Diaminohexanoic acid methyl ester (DL-Lysine methyl ester)",[HL]/[L][H],0.15,37.0,5:10,amine_primary:amine_primary,5(amine_primary) > 10(amine_primary),amine_primary,amine_primary(9.0~11.0); amine_primary(9.0~11.0)
COC(=O)C(N)CCCCN,7.19,5:10,amine_primary:amine_primary,"DL-2,6-Diaminohexanoic acid methyl ester (DL-Lysine methyl ester)",[H₂L]/[HL][H],0.1,25.0,5:10,amine_primary:amine_primary,5(amine_primary) > 10(amine_primary),amine_primary,amine_primary(9.0~11.0); amine_primary(9.0~11.0)
COC(=O)C(N)CCCCN,6.89,5:10,amine_primary:amine_primary,"DL-2,6-Diaminohexanoic acid methyl ester (DL-Lysine methyl ester)",[H₂L]/[HL][H],0.15,37.0,5:10,amine_primary:amine_primary,5(amine_primary) > 10(amine_primary),amine_primary,amine_primary(9.0~11.0); amine_primary(9.0~11.0)
NCC(=O)NCCCNC(=O)CN,8.4,0:12,amine_primary:amine_primary,"N,N'-Diglycyltrimethylenediamine",[HL]/[L][H],0.5,25.0,0:12,amine_primary:amine_primary,0(amine_primary) > 12(amine_primary),amine_primary,amine_primary(9.0~11.0); amine_primary(9.0~11.0)
NCC(=O)NCCCNC(=O)CN,7.72,0:12,amine_primary:amine_primary,"N,N'-Diglycyltrimethylenediamine",[H₂L]/[HL][H],0.5,25.0,0:12,amine_primary:amine_primary,0(amine_primary) > 12(amine_primary),amine_primary,amine_primary(9.0~11.0); amine_primary(9.0~11.0)
NCC(=O)NCCCCNC(=O)CN,8.41,0:13,amine_primary:amine_primary,"N,N'-Diglycyltetramethylenediamine",[HL]/[L][H],0.5,22.0,0:13,amine_primary:amine_primary,0(amine_primary) > 13(amine_primary),amine_primary,amine_primary(9.0~11.0); amine_primary(9.0~11.0)
NCC(=O)NCCCCNC(=O)CN,7.78,0:13,amine_primary:amine_primary,"N,N'-Diglycyltetramethylenediamine",[H₂L]/[HL][H],0.5,22.0,0:13,amine_primary:amine_primary,0(amine_primary) > 13(amine_primary),amine_primary,amine_primary(9.0~11.0); amine_primary(9.0~11.0)
NCC(=O)NCCCCCNC(=O)CN,8.36,0:14,amine_primary:amine_primary,"N,N'-Diglycylpentamethylenediamine",[HL]/[L][H],0.5,22.0,0:14,amine_primary:amine_primary,0(amine_primary) > 14(amine_primary),amine_primary,amine_primary(9.0~11.0); amine_primary(9.0~11.0)
NCC(=O)NCCCCCNC(=O)CN,7.73,0:14,amine_primary:amine_primary,"N,N'-Diglycylpentamethylenediamine",[H₂L]/[HL][H],0.5,22.0,0:14,amine_primary:amine_primary,0(amine_primary) > 14(amine_primary),amine_primary,amine_primary(9.0~11.0); amine_primary(9.0~11.0)
NCC(=O)NCCCCCCNC(=O)CN,8.41,0:15,amine_primary:amine_primary,"N,N'-Diglycylhexamethylenediamine",[HL]/[L][H],0.5,22.0,0:15,amine_primary:amine_primary,0(amine_primary) > 15(amine_primary),amine_primary,amine_primary(9.0~11.0); amine_primary(9.0~11.0)
NCC(=O)NCCCCCCNC(=O)CN,7.78,0:15,amine_primary:amine_primary,"N,N'-Diglycylhexamethylenediamine",[H₂L]/[HL][H],0.5,22.0,0:15,amine_primary:amine_primary,0(amine_primary) > 15(amine_primary),amine_primary,amine_primary(9.0~11.0); amine_primary(9.0~11.0)
NCC(=O)NCCCCCCCCNC(=O)CN,8.41,0:17,amine_primary:amine_primary,"N,N'-Diglycyloctamethylenediamine",[HL]/[L][H],0.5,22.0,0:17,amine_primary:amine_primary,0(amine_primary) > 17(amine_primary),amine_primary,amine_primary(9.0~11.0); amine_primary(9.0~11.0)
NCC(=O)NCCCCCCCCNC(=O)CN,7.75,0:17,amine_primary:amine_primary,"N,N'-Diglycyloctamethylenediamine",[H₂L]/[HL][H],0.5,22.0,0:17,amine_primary:amine_primary,0(amine_primary) > 17(amine_primary),amine_primary,amine_primary(9.0~11.0); amine_primary(9.0~11.0)
NCCNC(=O)C(=O)NCCN,9.23,0:11,amine_primary:amine_primary,"N,N'-Bis(2-aminoethyl)oxamide (BAO)(5,6-Dioxo-1,4,7,10-tetraazadecane)",[HL]/[L][H],0.1,25.0,0:11,amine_primary:amine_primary,0(amine_primary) > 11(amine_primary),amine_primary,amine_primary(9.0~11.0); amine_primary(9.0~11.0)
NCCNC(=O)C(=O)NCCN,9.31,0:11,amine_primary:amine_primary,"N,N'-Bis(2-aminoethyl)oxamide (BAO)(5,6-Dioxo-1,4,7,10-tetraazadecane)",[HL]/[L][H],0.1,22.0,0:11,amine_primary:amine_primary,0(amine_primary) > 11(amine_primary),amine_primary,amine_primary(9.0~11.0); amine_primary(9.0~11.0)
NCCNC(=O)C(=O)NCCN,9.54,0:11,amine_primary:amine_primary,"N,N'-Bis(2-aminoethyl)oxamide (BAO)(5,6-Dioxo-1,4,7,10-tetraazadecane)",[HL]/[L][H],1.0,25.0,0:11,amine_primary:amine_primary,0(amine_primary) > 11(amine_primary),amine_primary,amine_primary(9.0~11.0); amine_primary(9.0~11.0)
NCCNC(=O)C(=O)NCCN,8.45,0:11,amine_primary:amine_primary,"N,N'-Bis(2-aminoethyl)oxamide (BAO)(5,6-Dioxo-1,4,7,10-tetraazadecane)",[H₂L]/[HL][H],0.1,25.0,0:11,amine_primary:amine_primary,0(amine_primary) > 11(amine_primary),amine_primary,amine_primary(9.0~11.0); amine_primary(9.0~11.0)
NCCNC(=O)C(=O)NCCN,8.43,0:11,amine_primary:amine_primary,"N,N'-Bis(2-aminoethyl)oxamide (BAO)(5,6-Dioxo-1,4,7,10-tetraazadecane)",[H₂L]/[HL][H],0.1,22.0,0:11,amine_primary:amine_primary,0(amine_primary) > 11(amine_primary),amine_primary,amine_primary(9.0~11.0); amine_primary(9.0~11.0)
NCCNC(=O)C(=O)NCCN,8.3,0:11,amine_primary:amine_primary,"N,N'-Bis(2-aminoethyl)oxamide (BAO)(5,6-Dioxo-1,4,7,10-tetraazadecane)",[H₂L]/[HL][H],1.0,25.0,0:11,amine_primary:amine_primary,0(amine_primary) > 11(amine_primary),amine_primary,amine_primary(9.0~11.0); amine_primary(9.0~11.0)
NCCCNC(=O)C(=O)NCCCN,10.13,0:13,amine_primary:amine_primary,"N,N'-Bis(3-aminopropyl)oxamide (6,7-Dioxo-1,5,8,12-tetraazadodecane)",[HL]/[L][H],0.1,25.0,0:13,amine_primary:amine_primary,0(amine_primary) > 13(amine_primary),amine_primary,amine_primary(9.0~11.0); amine_primary(9.0~11.0)
NCCCNC(=O)C(=O)NCCCN,9.41,0:13,amine_primary:amine_primary,"N,N'-Bis(3-aminopropyl)oxamide (6,7-Dioxo-1,5,8,12-tetraazadodecane)",[H₂L]/[HL][H],0.1,25.0,0:13,amine_primary:amine_primary,0(amine_primary) > 13(amine_primary),amine_primary,amine_primary(9.0~11.0); amine_primary(9.0~11.0)
NCCNC(=O)CC(=O)NCCN,8.96,0:12,amine_primary:amine_primary,"N,N'-Bis(2-aminoethyl)malonamide (BAM)(5,7-Dioxo-1,4,8,11-tetraazaundecane)",[HL]/[L][H],0.1,25.0,0:12,amine_primary:amine_primary,0(amine_primary) > 12(amine_primary),amine_primary,amine_primary(9.0~11.0); amine_primary(9.0~11.0)
NCCNC(=O)CC(=O)NCCN,9.4,0:12,amine_primary:amine_primary,"N,N'-Bis(2-aminoethyl)malonamide (BAM)(5,7-Dioxo-1,4,8,11-tetraazaundecane)",[HL]/[L][H],0.1,22.0,0:12,amine_primary:amine_primary,0(amine_primary) > 12(amine_primary),amine_primary,amine_primary(9.0~11.0); amine_primary(9.0~11.0)
NCCNC(=O)CC(=O)NCCN,8.7,0:12,amine_primary:amine_primary,"N,N'-Bis(2-aminoethyl)malonamide (BAM)(5,7-Dioxo-1,4,8,11-tetraazaundecane)",[H₂L]/[HL][H],0.1,25.0,0:12,amine_primary:amine_primary,0(amine_primary) > 12(amine_primary),amine_primary,amine_primary(9.0~11.0); amine_primary(9.0~11.0)
NCCNC(=O)CC(=O)NCCN,8.68,0:12,amine_primary:amine_primary,"N,N'-Bis(2-aminoethyl)malonamide (BAM)(5,7-Dioxo-1,4,8,11-tetraazaundecane)",[H₂L]/[HL][H],0.1,22.0,0:12,amine_primary:amine_primary,0(amine_primary) > 12(amine_primary),amine_primary,amine_primary(9.0~11.0); amine_primary(9.0~11.0)
NON=C(N)C=NO,11.37,0:4,amine_primary:amine_primary,Oxamide dioxime (Diaminoglyoxime),[HL]/[L][H],0.0,20.0,0:4,amine_primary:amine_primary,0(amine_primary) > 4(amine_primary),amine_primary,amine_primary(9.0~11.0); amine_primary(9.0~11.0)
NON=C(N)C=NO,2.95,0:4,amine_primary:amine_primary,Oxamide dioxime (Diaminoglyoxime),[H₂L]/[HL][H],0.0,20.0,0:4,amine_primary:amine_primary,0(amine_primary) > 4(amine_primary),amine_primary,amine_primary(9.0~11.0); amine_primary(9.0~11.0)
NCCCC[C@H](N)C(=O)NO,10.66,0:6:9,amine_primary:amine_primary:amine_secondary,"L-2,6-Diaminohexanohydroxamic acid (Lysinehydroxamic acid)",[HL]/[L][H],0.5,25.0,0:6:9,amine_primary:amine_primary:amine_secondary,0(amine_primary) > 6(amine_primary) > 9(amine_secondary),amine_secondary,amine_primary(9.0~11.0); amine_primary(9.0~11.0); amine_secondary(9.5~11.5)
NCCCC[C@H](N)C(=O)NO,8.89,0:6:9,amine_primary:amine_primary:amine_secondary,"L-2,6-Diaminohexanohydroxamic acid (Lysinehydroxamic acid)",[H₂L]/[HL][H],0.5,25.0,0:6:9,amine_primary:amine_primary:amine_secondary,0(amine_primary) > 6(amine_primary) > 9(amine_secondary),amine_primary,amine_primary(9.0~11.0); amine_primary(9.0~11.0); amine_secondary(9.5~11.5)
NCCCC[C@H](N)C(=O)NO,7.01,0:6:9,amine_primary:amine_primary:amine_secondary,"L-2,6-Diaminohexanohydroxamic acid (Lysinehydroxamic acid)",[H₃L]/[H₂L][H],0.5,25.0,0:6:9,amine_primary:amine_primary:amine_secondary,0(amine_primary) > 6(amine_primary) > 9(amine_secondary),amine_primary,amine_primary(9.0~11.0); amine_primary(9.0~11.0); amine_secondary(9.5~11.5)
NCCCSCCN,10.14,0:7,amine_primary:amine_primary,"4-Thia-1,8-diazaoctane",[HL]/[L][H],0.5,25.0,0:7,amine_primary:amine_primary,0(amine_primary) > 7(amine_primary),amine_primary,amine_primary(9.0~11.0); amine_primary(9.0~11.0)
NCCCSCCN,9.16,0:7,amine_primary:amine_primary,"4-Thia-1,8-diazaoctane",[H₂L]/[HL][H],0.5,25.0,0:7,amine_primary:amine_primary,0(amine_primary) > 7(amine_primary),amine_primary,amine_primary(9.0~11.0); amine_primary(9.0~11.0)
NCCCCSCCN,10.44,0:8,amine_primary:amine_primary,"4-Thia-1,9-diazanonane",[HL]/[L][H],0.5,25.0,0:8,amine_primary:amine_primary,0(amine_primary) > 8(amine_primary),amine_primary,amine_primary(9.0~11.0); amine_primary(9.0~11.0)
NCCCCSCCN,9.25,0:8,amine_primary:amine_primary,"4-Thia-1,9-diazanonane",[H₂L]/[HL][H],0.5,25.0,0:8,amine_primary:amine_primary,0(amine_primary) > 8(amine_primary),amine_primary,amine_primary(9.0~11.0); amine_primary(9.0~11.0)
NCCCSCCCN,10.37,0:8,amine_primary:amine_primary,"5-Thia-1,9-diazanonane",[HL]/[L][H],0.5,25.0,0:8,amine_primary:amine_primary,0(amine_primary) > 8(amine_primary),amine_primary,amine_primary(9.0~11.0); amine_primary(9.0~11.0)
NCCCSCCCN,9.63,0:8,amine_primary:amine_primary,"5-Thia-1,9-diazanonane",[H₂L]/[HL][H],0.5,25.0,0:8,amine_primary:amine_primary,0(amine_primary) > 8(amine_primary),amine_primary,amine_primary(9.0~11.0); amine_primary(9.0~11.0)
NCCCCSCCCN,10.51,0:9,amine_primary:amine_primary,"5-Thia-1,10-diazadecane",[HL]/[L][H],0.5,25.0,0:9,amine_primary:amine_primary,0(amine_primary) > 9(amine_primary),amine_primary,amine_primary(9.0~11.0); amine_primary(9.0~11.0)
NCCCCSCCCN,9.81,0:9,amine_primary:amine_primary,"5-Thia-1,10-diazadecane",[H₂L]/[HL][H],0.5,25.0,0:9,amine_primary:amine_primary,0(amine_primary) > 9(amine_primary),amine_primary,amine_primary(9.0~11.0); amine_primary(9.0~11.0)
NCCCCSCCCCN,10.73,0:10,amine_primary:amine_primary,"6-Thia-1,11-diazaundecane",[HL]/[L][H],0.5,25.0,0:10,amine_primary:amine_primary,0(amine_primary) > 10(amine_primary),amine_primary,amine_primary(9.0~11.0); amine_primary(9.0~11.0)
NCCCCSCCCCN,10.05,0:10,amine_primary:amine_primary,"6-Thia-1,11-diazaundecane",[H₂L]/[HL][H],0.5,25.0,0:10,amine_primary:amine_primary,0(amine_primary) > 10(amine_primary),amine_primary,amine_primary(9.0~11.0); amine_primary(9.0~11.0)
NCCOCCSCCN,9.61,0:9,amine_primary:amine_primary,"4-Oxa-7-thia-1,10-diazadecane",[HL]/[L][H],0.0,25.0,0:9,amine_primary:amine_primary,0(amine_primary) > 9(amine_primary),amine_primary,amine_primary(9.0~11.0); amine_primary(9.0~11.0)
NCCOCCSCCN,8.68,0:9,amine_primary:amine_primary,"4-Oxa-7-thia-1,10-diazadecane",[H₂L]/[HL][H],0.0,25.0,0:9,amine_primary:amine_primary,0(amine_primary) > 9(amine_primary),amine_primary,amine_primary(9.0~11.0); amine_primary(9.0~11.0)