SMILES,pKa,Dissociable_Atoms,Functional_Group,Name,Equilibrium,Ionic,Temperature,Dissociable_Atoms_Ordered,Functional_Group_Ordered,Dissociation_Order,Dissociating_Group,Functional_Group_pKa_Ranges
OC(=O)C1=CC(=O)C=C(N1)C(O)=O,3.11,9:0:11,amine_secondary:carboxylic_acid:carboxylic_acid,"4-Hydroxypyridine-2,6-dicarboxylic acid (Chelidamic acid)",[H₂L]/[HL][H],0.1,20.0,0:11:9,carboxylic_acid:carboxylic_acid:amine_secondary,0(carboxylic_acid) > 11(carboxylic_acid) > 9(amine_secondary),carboxylic_acid,amine_secondary(9.5~11.5); carboxylic_acid(1.5~5.0); carboxylic_acid(1.5~5.0)
OC(=O)C1=CC(=O)C=C(N1)C(O)=O,1.4,9:0:11,amine_secondary:carboxylic_acid:carboxylic_acid,"4-Hydroxypyridine-2,6-dicarboxylic acid (Chelidamic acid)",[H₃L]/[H₂L][H],0.1,20.0,0:11:9,carboxylic_acid:carboxylic_acid:amine_secondary,0(carboxylic_acid) > 11(carboxylic_acid) > 9(amine_secondary),carboxylic_acid,amine_secondary(9.5~11.5); carboxylic_acid(1.5~5.0); carboxylic_acid(1.5~5.0)
Nc1cc(nc(c1)C(O)=O)C(O)=O,9.05,11:8,carboxylic_acid:carboxylic_acid,"4-Aminopyridine-2,6-dicarboxylic acid",[HL]/[L][H],0.1,20.0,11:8,carboxylic_acid:carboxylic_acid,11(carboxylic_acid) > 8(carboxylic_acid),carboxylic_acid,carboxylic_acid(1.5~5.0); carboxylic_acid(1.5~5.0)
Nc1cc(nc(c1)C(O)=O)C(O)=O,2.29,11:8,carboxylic_acid:carboxylic_acid,"4-Aminopyridine-2,6-dicarboxylic acid",[H₂L]/[HL][H],0.1,20.0,11:8,carboxylic_acid:carboxylic_acid,11(carboxylic_acid) > 8(carboxylic_acid),carboxylic_acid,carboxylic_acid(1.5~5.0); carboxylic_acid(1.5~5.0)
CNc1cc(nc(c1)C(O)=O)C(O)=O,9.68,12:9,carboxylic_acid:carboxylic_acid,"4-(Methylamino)pyridine-2,6-dicarboxylic acid",[HL]/[L][H],0.1,22.0,12:9,carboxylic_acid:carboxylic_acid,12(carboxylic_acid) > 9(carboxylic_acid),carboxylic_acid,carboxylic_acid(1.5~5.0); carboxylic_acid(1.5~5.0)
CNc1cc(nc(c1)C(O)=O)C(O)=O,1.3,12:9,carboxylic_acid:carboxylic_acid,"4-(Methylamino)pyridine-2,6-dicarboxylic acid",[H₂L]/[HL][H],0.1,22.0,12:9,carboxylic_acid:carboxylic_acid,12(carboxylic_acid) > 9(carboxylic_acid),carboxylic_acid,carboxylic_acid(1.5~5.0); carboxylic_acid(1.5~5.0)
CN(C)c1cc(nc(c1)C(O)=O)C(O)=O,9.77,13:10,carboxylic_acid:carboxylic_acid,"4-(Dimethylamino)pyridine-2,6-dicarboxylic acid",[HL]/[L][H],0.1,22.0,13:10,carboxylic_acid:carboxylic_acid,13(carboxylic_acid) > 10(carboxylic_acid),carboxylic_acid,carboxylic_acid(1.5~5.0); carboxylic_acid(1.5~5.0)
CN(C)c1cc(nc(c1)C(O)=O)C(O)=O,1.5,13:10,carboxylic_acid:carboxylic_acid,"4-(Dimethylamino)pyridine-2,6-dicarboxylic acid",[H₂L]/[HL][H],0.1,22.0,13:10,carboxylic_acid:carboxylic_acid,13(carboxylic_acid) > 10(carboxylic_acid),carboxylic_acid,carboxylic_acid(1.5~5.0); carboxylic_acid(1.5~5.0)
OC(=O)c1cc(Nc2ccccc2)cc(n1)C(O)=O,8.65,0:17,carboxylic_acid:carboxylic_acid,"4-(Phenylamino)pyridine-2,6-dicarboxylic acid",[HL]/[L][H],0.1,22.0,0:17,carboxylic_acid:carboxylic_acid,0(carboxylic_acid) > 17(carboxylic_acid),carboxylic_acid,carboxylic_acid(1.5~5.0); carboxylic_acid(1.5~5.0)
OC(=O)c1cc(Nc2ccccc2)cc(n1)C(O)=O,1.4,0:17,carboxylic_acid:carboxylic_acid,"4-(Phenylamino)pyridine-2,6-dicarboxylic acid",[H₂L]/[HL][H],0.1,22.0,0:17,carboxylic_acid:carboxylic_acid,0(carboxylic_acid) > 17(carboxylic_acid),carboxylic_acid,carboxylic_acid(1.5~5.0); carboxylic_acid(1.5~5.0)
OC(=O)Cc1ccccn1,5.77,9,pyridine_nitrogen,2-Pyridylacetic acid (Pyridine-2-acetic acid),[HL]/[L][H],0.5,25.0,9,pyridine_nitrogen,9(pyridine_nitrogen),Unknown,pyridine_nitrogen(Unknown)
OC(=O)Cc1ccccn1,5.78,9,pyridine_nitrogen,2-Pyridylacetic acid (Pyridine-2-acetic acid),[HL]/[L][H],1.0,25.0,9,pyridine_nitrogen,9(pyridine_nitrogen),Unknown,pyridine_nitrogen(Unknown)
OC(=O)Cc1ccccn1,2.67,9,pyridine_nitrogen,2-Pyridylacetic acid (Pyridine-2-acetic acid),[H₂L]/[HL][H],0.5,25.0,9,pyridine_nitrogen,9(pyridine_nitrogen),Unknown,pyridine_nitrogen(Unknown)
OC(=O)Cc1ccccn1,2.73,9,pyridine_nitrogen,2-Pyridylacetic acid (Pyridine-2-acetic acid),[H₂L]/[HL][H],1.0,25.0,9,pyridine_nitrogen,9(pyridine_nitrogen),Unknown,pyridine_nitrogen(Unknown)
OC(=O)CCc1ccccn1,5.9,10,pyridine_nitrogen,3-(2-Pyridyl)propanoic acid,[HL]/[L][H],0.5,20.0,10,pyridine_nitrogen,10(pyridine_nitrogen),Unknown,pyridine_nitrogen(Unknown)
OC(=O)CCc1ccccn1,6.05,10,pyridine_nitrogen,3-(2-Pyridyl)propanoic acid,[HL]/[L][H],0.0,20.0,10,pyridine_nitrogen,10(pyridine_nitrogen),Unknown,pyridine_nitrogen(Unknown)
OC(=O)CCc1ccccn1,3.7,10,pyridine_nitrogen,3-(2-Pyridyl)propanoic acid,[H₂L]/[HL][H],0.5,20.0,10,pyridine_nitrogen,10(pyridine_nitrogen),Unknown,pyridine_nitrogen(Unknown)
OC(=O)CCc1ccccn1,3.64,10,pyridine_nitrogen,3-(2-Pyridyl)propanoic acid,[H₂L]/[HL][H],0.0,20.0,10,pyridine_nitrogen,10(pyridine_nitrogen),Unknown,pyridine_nitrogen(Unknown)
OC(=O)/C=C/c1ccccn1,4.56,10,pyridine_nitrogen,trans-3-(2-Pyridyl)propenoic acid,[HL]/[L][H],0.1,25.0,10,pyridine_nitrogen,10(pyridine_nitrogen),Unknown,pyridine_nitrogen(Unknown)
OC(=O)/C=C/c1ccccn1,2.83,10,pyridine_nitrogen,trans-3-(2-Pyridyl)propenoic acid,[H₂L]/[HL][H],0.1,25.0,10,pyridine_nitrogen,10(pyridine_nitrogen),Unknown,pyridine_nitrogen(Unknown)
OC(=O)Cc1cccnc1,5.5,8,pyridine_nitrogen,3-Pyridylacetic acid (Pyridine-3-acetic acid),[HL]/[L][H],0.5,20.0,8,pyridine_nitrogen,8(pyridine_nitrogen),Unknown,pyridine_nitrogen(Unknown)
OC(=O)Cc1cccnc1,5.58,8,pyridine_nitrogen,3-Pyridylacetic acid (Pyridine-3-acetic acid),[HL]/[L][H],0.0,20.0,8,pyridine_nitrogen,8(pyridine_nitrogen),Unknown,pyridine_nitrogen(Unknown)
OC(=O)Cc1cccnc1,3.11,8,pyridine_nitrogen,3-Pyridylacetic acid (Pyridine-3-acetic acid),[H₂L]/[HL][H],0.5,20.0,8,pyridine_nitrogen,8(pyridine_nitrogen),Unknown,pyridine_nitrogen(Unknown)
OC(=O)Cc1cccnc1,3.02,8,pyridine_nitrogen,3-Pyridylacetic acid (Pyridine-3-acetic acid),[H₂L]/[HL][H],0.0,20.0,8,pyridine_nitrogen,8(pyridine_nitrogen),Unknown,pyridine_nitrogen(Unknown)
OC(=O)CCc1cccnc1,5.76,9,pyridine_nitrogen,3-(3-Pyridyl)propanoic acid,[HL]/[L][H],0.5,20.0,9,pyridine_nitrogen,9(pyridine_nitrogen),Unknown,pyridine_nitrogen(Unknown)
OC(=O)CCc1cccnc1,5.95,9,pyridine_nitrogen,3-(3-Pyridyl)propanoic acid,[HL]/[L][H],0.0,20.0,9,pyridine_nitrogen,9(pyridine_nitrogen),Unknown,pyridine_nitrogen(Unknown)
OC(=O)CCc1cccnc1,3.86,9,pyridine_nitrogen,3-(3-Pyridyl)propanoic acid,[H₂L]/[HL][H],0.5,20.0,9,pyridine_nitrogen,9(pyridine_nitrogen),Unknown,pyridine_nitrogen(Unknown)
OC(=O)CCc1cccnc1,3.78,9,pyridine_nitrogen,3-(3-Pyridyl)propanoic acid,[H₂L]/[HL][H],0.0,20.0,9,pyridine_nitrogen,9(pyridine_nitrogen),Unknown,pyridine_nitrogen(Unknown)
OC(=O)Cc1ccncc1,5.79,7,pyridine_nitrogen,4-Pyridylacetic acid (Pyridine-4-acetic acid),[HL]/[L][H],0.5,20.0,7,pyridine_nitrogen,7(pyridine_nitrogen),Unknown,pyridine_nitrogen(Unknown)
OC(=O)Cc1ccncc1,3.0,7,pyridine_nitrogen,4-Pyridylacetic acid (Pyridine-4-acetic acid),[H₂L]/[HL][H],0.5,20.0,7,pyridine_nitrogen,7(pyridine_nitrogen),Unknown,pyridine_nitrogen(Unknown)
OC(=O)CCc1ccncc1,6.01,8,pyridine_nitrogen,3-(4-Pyridyl)propanoic acid,[HL]/[L][H],0.5,20.0,8,pyridine_nitrogen,8(pyridine_nitrogen),Unknown,pyridine_nitrogen(Unknown)
OC(=O)CCc1ccncc1,6.12,8,pyridine_nitrogen,3-(4-Pyridyl)propanoic acid,[HL]/[L][H],0.0,20.0,8,pyridine_nitrogen,8(pyridine_nitrogen),Unknown,pyridine_nitrogen(Unknown)
OC(=O)CCc1ccncc1,3.75,8,pyridine_nitrogen,3-(4-Pyridyl)propanoic acid,[H₂L]/[HL][H],0.5,20.0,8,pyridine_nitrogen,8(pyridine_nitrogen),Unknown,pyridine_nitrogen(Unknown)
OC(=O)CCc1ccncc1,3.69,8,pyridine_nitrogen,3-(4-Pyridyl)propanoic acid,[H₂L]/[HL][H],0.0,20.0,8,pyridine_nitrogen,8(pyridine_nitrogen),Unknown,pyridine_nitrogen(Unknown)
OC(=O)Cc1cccc(CC(O)=O)n1,6.02,22,ring_nitrogen,"Pyridine-2,6-diacetic acid",[HL]/[L][H],1.0,20.0,22,ring_nitrogen,22(ring_nitrogen),Unknown,ring_nitrogen(Unknown)
OC(=O)Cc1cccc(CC(O)=O)n1,3.1,22,ring_nitrogen,"Pyridine-2,6-diacetic acid",[H₂L]/[HL][H],1.0,20.0,22,ring_nitrogen,22(ring_nitrogen),Unknown,ring_nitrogen(Unknown)
OC(=O)Cc1cccc(CC(O)=O)n1,2.35,22,ring_nitrogen,"Pyridine-2,6-diacetic acid",[H₃L]/[H₂L][H],1.0,20.0,22,ring_nitrogen,22(ring_nitrogen),Unknown,ring_nitrogen(Unknown)
OC(=O)CNCc1ccccn1,8.18,11,pyridine_nitrogen,N-(2-Pyridylmethyl)glycine,[HL]/[L][H],0.1,25.0,11,pyridine_nitrogen,11(pyridine_nitrogen),Unknown,pyridine_nitrogen(Unknown)
OC(=O)CNCc1ccccn1,2.46,11,pyridine_nitrogen,N-(2-Pyridylmethyl)glycine,[H₂L]/[HL][H],0.1,25.0,11,pyridine_nitrogen,11(pyridine_nitrogen),Unknown,pyridine_nitrogen(Unknown)
OC(=O)CNCc1ccccn1,2.19,11,pyridine_nitrogen,N-(2-Pyridylmethyl)glycine,[H₃L]/[H₂L][H],0.1,25.0,11,pyridine_nitrogen,11(pyridine_nitrogen),Unknown,pyridine_nitrogen(Unknown)
OC(=O)CN(CC(O)=O)Cc1ccccn1,8.2,15,pyridine_nitrogen,N-(2-Pyridylmethyl)iminodiacetic acid,[HL]/[L][H],0.1,25.0,15,pyridine_nitrogen,15(pyridine_nitrogen),Unknown,pyridine_nitrogen(Unknown)
OC(=O)CN(CC(O)=O)Cc1ccccn1,2.72,15,pyridine_nitrogen,N-(2-Pyridylmethyl)iminodiacetic acid,[H₂L]/[HL][H],0.1,25.0,15,pyridine_nitrogen,15(pyridine_nitrogen),Unknown,pyridine_nitrogen(Unknown)
OC(=O)CN(CC(O)=O)Cc1ccccn1,2.72,15,pyridine_nitrogen,N-(2-Pyridylmethyl)iminodiacetic acid,[H₂L]/[HL][H],0.1,20.0,15,pyridine_nitrogen,15(pyridine_nitrogen),Unknown,pyridine_nitrogen(Unknown)
OC(=O)CN(CC(O)=O)Cc1ccccn1,2.68,15,pyridine_nitrogen,N-(2-Pyridylmethyl)iminodiacetic acid,[H₃L]/[H₂L][H],0.1,25.0,15,pyridine_nitrogen,15(pyridine_nitrogen),Unknown,pyridine_nitrogen(Unknown)
OC(=O)CN(CC(O)=O)Cc1ccccn1,2.7,15,pyridine_nitrogen,N-(2-Pyridylmethyl)iminodiacetic acid,[H₃L]/[H₂L][H],0.1,20.0,15,pyridine_nitrogen,15(pyridine_nitrogen),Unknown,pyridine_nitrogen(Unknown)
Cc1cccc(CN(CC(O)=O)CC(O)=O)n1,8.31,27,ring_nitrogen,N-(6-Methyl-2-pyridylmethyl)iminodiacetic acid,[HL]/[L][H],0.1,25.0,27,ring_nitrogen,27(ring_nitrogen),Unknown,ring_nitrogen(Unknown)
Cc1cccc(CN(CC(O)=O)CC(O)=O)n1,3.45,27,ring_nitrogen,N-(6-Methyl-2-pyridylmethyl)iminodiacetic acid,[H₂L]/[HL][H],0.1,25.0,27,ring_nitrogen,27(ring_nitrogen),Unknown,ring_nitrogen(Unknown)
Cc1cccc(CN(CC(O)=O)CC(O)=O)n1,2.62,27,ring_nitrogen,N-(6-Methyl-2-pyridylmethyl)iminodiacetic acid,[H₃L]/[H₂L][H],0.1,25.0,27,ring_nitrogen,27(ring_nitrogen),Unknown,ring_nitrogen(Unknown)
Cc1cccc(CN(CC(O)=O)CC(O)=O)n1,2.6,27,ring_nitrogen,N-(6-Methyl-2-pyridylmethyl)iminodiacetic acid,[H₃L]/[H₂L][H],0.1,20.0,27,ring_nitrogen,27(ring_nitrogen),Unknown,ring_nitrogen(Unknown)
CCN1C=C(C(O)=O)C(=O)c2ccc(C)nc12,5.94,6,carboxylic_acid,"1-Ethyl-1,4-dihydro-7-methyl-4-oxo-1,8-naphthyridine-3-carboxylic acid (Nalidixic acid)",[HL]/[L][H],0.15,37.0,6,carboxylic_acid,6(carboxylic_acid),carboxylic_acid,carboxylic_acid(1.5~5.0)
CN,10.65,1,amine_primary,Methylamine,[HL]/[L][H],0.1,25.0,1,amine_primary,1(amine_primary),amine_primary,amine_primary(9.0~11.0)
CN,10.72,1,amine_primary,Methylamine,[HL]/[L][H],0.5,25.0,1,amine_primary,1(amine_primary),amine_primary,amine_primary(9.0~11.0)
CN,10.84,1,amine_primary,Methylamine,[HL]/[L][H],1.0,25.0,1,amine_primary,1(amine_primary),amine_primary,amine_primary(9.0~11.0)
CN,10.8,1,amine_primary,Methylamine,[HL]/[L][H],2.0,25.0,1,amine_primary,1(amine_primary),amine_primary,amine_primary(9.0~11.0)
CN,11.136,1,amine_primary,Methylamine,[HL]/[L][H],0.0,10.0,1,amine_primary,1(amine_primary),amine_primary,amine_primary(9.0~11.0)
CN,10.632,1,amine_primary,Methylamine,[HL]/[L][H],0.0,25.0,1,amine_primary,1(amine_primary),amine_primary,amine_primary(9.0~11.0)
CN,10.166,1,amine_primary,Methylamine,[HL]/[L][H],0.0,40.0,1,amine_primary,1(amine_primary),amine_primary,amine_primary(9.0~11.0)
CCN,10.69,2,amine_primary,Ethylamine,[HL]/[L][H],0.1,25.0,2,amine_primary,2(amine_primary),amine_primary,amine_primary(9.0~11.0)
CCN,10.72,2,amine_primary,Ethylamine,[HL]/[L][H],0.5,25.0,2,amine_primary,2(amine_primary),amine_primary,amine_primary(9.0~11.0)
CCN,10.83,2,amine_primary,Ethylamine,[HL]/[L][H],1.0,25.0,2,amine_primary,2(amine_primary),amine_primary,amine_primary(9.0~11.0)
CCN,10.673,2,amine_primary,Ethylamine,[HL]/[L][H],0.0,25.0,2,amine_primary,2(amine_primary),amine_primary,amine_primary(9.0~11.0)
CCCN,10.64,3,amine_primary,Propylamine,[HL]/[L][H],0.1,25.0,3,amine_primary,3(amine_primary),amine_primary,amine_primary(9.0~11.0)
CCCN,10.74,3,amine_primary,Propylamine,[HL]/[L][H],0.5,25.0,3,amine_primary,3(amine_primary),amine_primary,amine_primary(9.0~11.0)
CCCN,10.78,3,amine_primary,Propylamine,[HL]/[L][H],1.0,25.0,3,amine_primary,3(amine_primary),amine_primary,amine_primary(9.0~11.0)
CCCN,11.097,3,amine_primary,Propylamine,[HL]/[L][H],0.0,10.0,3,amine_primary,3(amine_primary),amine_primary,amine_primary(9.0~11.0)
CCCN,10.566,3,amine_primary,Propylamine,[HL]/[L][H],0.0,25.0,3,amine_primary,3(amine_primary),amine_primary,amine_primary(9.0~11.0)
CCCN,10.087,3,amine_primary,Propylamine,[HL]/[L][H],0.0,40.0,3,amine_primary,3(amine_primary),amine_primary,amine_primary(9.0~11.0)
CCCCN,10.66,4,amine_primary,Butylamine,[HL]/[L][H],0.1,25.0,4,amine_primary,4(amine_primary),amine_primary,amine_primary(9.0~11.0)
CCCCN,10.7,4,amine_primary,Butylamine,[HL]/[L][H],0.5,25.0,4,amine_primary,4(amine_primary),amine_primary,amine_primary(9.0~11.0)
CCCCN,10.75,4,amine_primary,Butylamine,[HL]/[L][H],0.5,25.0,4,amine_primary,4(amine_primary),amine_primary,amine_primary(9.0~11.0)
CCCCN,10.75,4,amine_primary,Butylamine,[HL]/[L][H],1.0,25.0,4,amine_primary,4(amine_primary),amine_primary,amine_primary(9.0~11.0)
CCCCN,10.85,4,amine_primary,Butylamine,[HL]/[L][H],1.0,25.0,4,amine_primary,4(amine_primary),amine_primary,amine_primary(9.0~11.0)
CCCCN,11.08,4,amine_primary,Butylamine,[HL]/[L][H],2.0,25.0,4,amine_primary,4(amine_primary),amine_primary,amine_primary(9.0~11.0)
CCCCN,11.177,4,amine_primary,Butylamine,[HL]/[L][H],0.0,10.0,4,amine_primary,4(amine_primary),amine_primary,amine_primary(9.0~11.0)
CCCCN,10.64,4,amine_primary,Butylamine,[HL]/[L][H],0.0,25.0,4,amine_primary,4(amine_primary),amine_primary,amine_primary(9.0~11.0)
CCCCN,10.15,4,amine_primary,Butylamine,[HL]/[L][H],0.0,40.0,4,amine_primary,4(amine_primary),amine_primary,amine_primary(9.0~11.0)
CCCCCN,10.63,5,amine_primary,Pentylamine,[HL]/[L][H],0.1,25.0,5,amine_primary,5(amine_primary),amine_primary,amine_primary(9.0~11.0)
CCCCCN,10.75,5,amine_primary,Pentylamine,[HL]/[L][H],0.5,25.0,5,amine_primary,5(amine_primary),amine_primary,amine_primary(9.0~11.0)
CCCCCN,10.597,5,amine_primary,Pentylamine,[HL]/[L][H],0.0,25.0,5,amine_primary,5(amine_primary),amine_primary,amine_primary(9.0~11.0)
CCCCCCN,10.64,6,amine_primary,Hexylamine,[HL]/[L][H],0.1,25.0,6,amine_primary,6(amine_primary),amine_primary,amine_primary(9.0~11.0)
CCCCCCN,10.63,6,amine_primary,Hexylamine,[HL]/[L][H],0.0,25.0,6,amine_primary,6(amine_primary),amine_primary,amine_primary(9.0~11.0)
CC(C)N,10.61,3,amine_primary,2-Propylamine (Isopropylamine),[HL]/[L][H],0.1,25.0,3,amine_primary,3(amine_primary),amine_primary,amine_primary(9.0~11.0)
CC(C)N,10.63,3,amine_primary,2-Propylamine (Isopropylamine),[HL]/[L][H],0.5,25.0,3,amine_primary,3(amine_primary),amine_primary,amine_primary(9.0~11.0)
CC(C)N,10.72,3,amine_primary,2-Propylamine (Isopropylamine),[HL]/[L][H],1.0,25.0,3,amine_primary,3(amine_primary),amine_primary,amine_primary(9.0~11.0)
CC(C)N,10.67,3,amine_primary,2-Propylamine (Isopropylamine),[HL]/[L][H],0.0,25.0,3,amine_primary,3(amine_primary),amine_primary,amine_primary(9.0~11.0)
CCC(C)N,10.56,4,amine_primary,DL-2-Butylamine (s-Butylamine),[HL]/[L][H],0.1,25.0,4,amine_primary,4(amine_primary),amine_primary,amine_primary(9.0~11.0)
CCC(C)N,10.57,4,amine_primary,DL-2-Butylamine (s-Butylamine),[HL]/[L][H],0.0,25.0,4,amine_primary,4(amine_primary),amine_primary,amine_primary(9.0~11.0)
CC(C)CN,10.57,4,amine_primary,2-Methylpropylamine (Isobutylamine),[HL]/[L][H],0.5,25.0,4,amine_primary,4(amine_primary),amine_primary,amine_primary(9.0~11.0)
CC(C)CN,10.48,4,amine_primary,2-Methylpropylamine (Isobutylamine),[HL]/[L][H],0.0,25.0,4,amine_primary,4(amine_primary),amine_primary,amine_primary(9.0~11.0)
CCC(N)CC,10.41,3,amine_primary,3-Pentylamine,[HL]/[L][H],0.1,25.0,3,amine_primary,3(amine_primary),amine_primary,amine_primary(9.0~11.0)
CCC(N)CC,10.52,3,amine_primary,3-Pentylamine,[HL]/[L][H],0.5,25.0,3,amine_primary,3(amine_primary),amine_primary,amine_primary(9.0~11.0)
CC(C)CCN,10.64,5,amine_primary,3-Methylbutylamine (Isopentylamine),[HL]/[L][H],0.0,25.0,5,amine_primary,5(amine_primary),amine_primary,amine_primary(9.0~11.0)
CC(C)(C)N,10.65,4,amine_primary,2-Methyl-2-propylamine (t-Butylamine),[HL]/[L][H],0.1,25.0,4,amine_primary,4(amine_primary),amine_primary,amine_primary(9.0~11.0)
CC(C)(C)N,10.67,4,amine_primary,2-Methyl-2-propylamine (t-Butylamine),[HL]/[L][H],0.5,25.0,4,amine_primary,4(amine_primary),amine_primary,amine_primary(9.0~11.0)
CC(C)(C)N,10.72,4,amine_primary,2-Methyl-2-propylamine (t-Butylamine),[HL]/[L][H],1.0,25.0,4,amine_primary,4(amine_primary),amine_primary,amine_primary(9.0~11.0)
CC(C)(C)N,11.048,4,amine_primary,2-Methyl-2-propylamine (t-Butylamine),[HL]/[L][H],0.0,15.0,4,amine_primary,4(amine_primary),amine_primary,amine_primary(9.0~11.0)
CC(C)(C)N,10.685,4,amine_primary,2-Methyl-2-propylamine (t-Butylamine),[HL]/[L][H],0.0,25.0,4,amine_primary,4(amine_primary),amine_primary,amine_primary(9.0~11.0)
CC(C)(C)N,10.341,4,amine_primary,2-Methyl-2-propylamine (t-Butylamine),[HL]/[L][H],0.0,35.0,4,amine_primary,4(amine_primary),amine_primary,amine_primary(9.0~11.0)
NC1CCCC1,10.63,0,amine_primary,Cyclopentylamine,[HL]/[L][H],0.1,25.0,0,amine_primary,0(amine_primary),amine_primary,amine_primary(9.0~11.0)
NC1CCCC1,10.65,0,amine_primary,Cyclopentylamine,[HL]/[L][H],0.5,25.0,0,amine_primary,0(amine_primary),amine_primary,amine_primary(9.0~11.0)
NC1CCCC1,10.65,0,amine_primary,Cyclopentylamine,[HL]/[L][H],0.0,25.0,0,amine_primary,0(amine_primary),amine_primary,amine_primary(9.0~11.0)
NC1CCCCC1,10.62,0,amine_primary,Cyclohexylamine,[HL]/[L][H],0.1,25.0,0,amine_primary,0(amine_primary),amine_primary,amine_primary(9.0~11.0)
NC1CCCCC1,10.567,0,amine_primary,Cyclohexylamine,[HL]/[L][H],0.0,25.0,0,amine_primary,0(amine_primary),amine_primary,amine_primary(9.0~11.0)
NCC1CCCCC1,10.7,0,amine_primary,Cyclohexylmethylamine,[HL]/[L][H],0.1,20.0,0,amine_primary,0(amine_primary),amine_primary,amine_primary(9.0~11.0)
[Cl-].NC12CC3CC(CC(C3)C1)C2.[H+],10.55,1,amine_primary,"Tricyclo[3.3.1.1(3,7)]decan-1-amine (Amantadine)",[HL]/[L][H],0.0,25.0,1,amine_primary,1(amine_primary),amine_primary,amine_primary(9.0~11.0)
NCC=C,9.52,0,amine_primary,Prop-2-enylamine (Allylamine),[HL]/[L][H],0.0,25.0,0,amine_primary,0(amine_primary),amine_primary,amine_primary(9.0~11.0)
NCC#N,5.15,4,nitrile,Cyanomethylamine,[HL]/[L][H],0.1,25.0,4,nitrile,4(nitrile),Unknown,nitrile(Unknown)
NCC#N,5.17,4,nitrile,Cyanomethylamine,[HL]/[L][H],0.5,25.0,4,nitrile,4(nitrile),Unknown,nitrile(Unknown)
NCc1ccccc1,9.4,0,amine_primary,Benzylamine (Phenylmethylamine),[HL]/[L][H],0.1,25.0,0,amine_primary,0(amine_primary),amine_primary,amine_primary(9.0~11.0)
NCc1ccccc1,9.44,0,amine_primary,Benzylamine (Phenylmethylamine),[HL]/[L][H],0.5,25.0,0,amine_primary,0(amine_primary),amine_primary,amine_primary(9.0~11.0)
NCc1ccccc1,9.46,0,amine_primary,Benzylamine (Phenylmethylamine),[HL]/[L][H],1.0,30.0,0,amine_primary,0(amine_primary),amine_primary,amine_primary(9.0~11.0)
NCc1ccccc1,9.35,0,amine_primary,Benzylamine (Phenylmethylamine),[HL]/[L][H],0.0,25.0,0,amine_primary,0(amine_primary),amine_primary,amine_primary(9.0~11.0)
Cc1ccc(CN)cc1,9.51,6,amine_primary,4-Methylbenzylamine,[HL]/[L][H],0.1,25.0,6,amine_primary,6(amine_primary),amine_primary,amine_primary(9.0~11.0)
NCc1ccc(cc1)C(F)(F)F,8.84,0,amine_primary,4-(Trifluoromethyl)benzylamine,[HL]/[L][H],0.1,25.0,0,amine_primary,0(amine_primary),amine_primary,amine_primary(9.0~11.0)
NCc1ccc(cc1)C#N,8.61,14,nitrile,4-Cyanobenzylamine,[HL]/[L][H],0.1,25.0,14,nitrile,14(nitrile),Unknown,nitrile(Unknown)
NCCc1ccccc1,9.92,0,amine_primary,2-Phenylethylamine,[HL]/[L][H],0.1,25.0,0,amine_primary,0(amine_primary),amine_primary,amine_primary(9.0~11.0)
NCCc1ccccc1,10.06,0,amine_primary,2-Phenylethylamine,[HL]/[L][H],1.0,25.0,0,amine_primary,0(amine_primary),amine_primary,amine_primary(9.0~11.0)