SMILES,pKa,Dissociable_Atoms,Functional_Group,Name,Equilibrium,Ionic,Temperature,Dissociable_Atoms_Ordered,Functional_Group_Ordered,Dissociation_Order,Dissociating_Group,Functional_Group_pKa_Ranges
NCCCC[C@H](NC(=O)[C@@H](N)Cc1c[nH]cn1)C(O)=O,7.29,18:0:10:6,carboxylic_acid:amine_primary:amine_primary:amine_secondary,L-Histidyl-L-lysine,[H₂L]/[HL][H],0.1,37.0,18:0:10:6,carboxylic_acid:amine_primary:amine_primary:amine_secondary,18(carboxylic_acid) > 0(amine_primary) > 10(amine_primary) > 6(amine_secondary),amine_primary,carboxylic_acid(1.5~5.0); amine_primary(9.0~11.0); amine_primary(9.0~11.0); amine_secondary(9.5~11.5)
NCCCC[C@H](NC(=O)[C@@H](N)Cc1c[nH]cn1)C(O)=O,5.65,18:0:10:6,carboxylic_acid:amine_primary:amine_primary:amine_secondary,L-Histidyl-L-lysine,[H₃L]/[H₂L][H],0.1,37.0,18:0:10:6,carboxylic_acid:amine_primary:amine_primary:amine_secondary,18(carboxylic_acid) > 0(amine_primary) > 10(amine_primary) > 6(amine_secondary),carboxylic_acid,carboxylic_acid(1.5~5.0); amine_primary(9.0~11.0); amine_primary(9.0~11.0); amine_secondary(9.5~11.5)
NCCCC[C@H](NC(=O)[C@@H](N)Cc1c[nH]cn1)C(O)=O,2.0,18:0:10:6,carboxylic_acid:amine_primary:amine_primary:amine_secondary,L-Histidyl-L-lysine,[H₄L]/[H₃L][H],0.1,37.0,18:0:10:6,carboxylic_acid:amine_primary:amine_primary:amine_secondary,18(carboxylic_acid) > 0(amine_primary) > 10(amine_primary) > 6(amine_secondary),carboxylic_acid,carboxylic_acid(1.5~5.0); amine_primary(9.0~11.0); amine_primary(9.0~11.0); amine_secondary(9.5~11.5)
OC(=O)[C@H](Cc1c[nH]cn1)NC(=O)[C@@H]2CCC(=O)N2,7.18,0:7,carboxylic_acid:amine_secondary,L-Pyroglutamyl-L-histidine,[HL]/[L][H],0.1,22.0,0:7,carboxylic_acid:amine_secondary,0(carboxylic_acid) > 7(amine_secondary),amine_secondary,carboxylic_acid(1.5~5.0); amine_secondary(9.5~11.5)
OC(=O)[C@H](Cc1c[nH]cn1)NC(=O)[C@@H]2CCC(=O)N2,2.7,0:7,carboxylic_acid:amine_secondary,L-Pyroglutamyl-L-histidine,[H₂L]/[HL][H],0.1,22.0,0:7,carboxylic_acid:amine_secondary,0(carboxylic_acid) > 7(amine_secondary),carboxylic_acid,carboxylic_acid(1.5~5.0); amine_secondary(9.5~11.5)
N[C@@H](Cc1c[nH]cn1)C(=O)N[C@@H](Cc2c[nH]cn2)C(O)=O,7.52,19:0:5:10,carboxylic_acid:amine_primary:amine_secondary:amine_secondary,L-Histidyl-L-histidine,[HL]/[L][H],0.1,25.0,19:0:5:10,carboxylic_acid:amine_primary:amine_secondary:amine_secondary,19(carboxylic_acid) > 0(amine_primary) > 5(amine_secondary) > 10(amine_secondary),amine_primary,carboxylic_acid(1.5~5.0); amine_primary(9.0~11.0); amine_secondary(9.5~11.5); amine_secondary(9.5~11.5)
N[C@@H](Cc1c[nH]cn1)C(=O)N[C@@H](Cc2c[nH]cn2)C(O)=O,6.7,19:0:5:10,carboxylic_acid:amine_primary:amine_secondary:amine_secondary,L-Histidyl-L-histidine,[H₂L]/[HL][H],0.1,25.0,19:0:5:10,carboxylic_acid:amine_primary:amine_secondary:amine_secondary,19(carboxylic_acid) > 0(amine_primary) > 5(amine_secondary) > 10(amine_secondary),amine_primary,carboxylic_acid(1.5~5.0); amine_primary(9.0~11.0); amine_secondary(9.5~11.5); amine_secondary(9.5~11.5)
N[C@@H](Cc1c[nH]cn1)C(=O)N[C@@H](Cc2c[nH]cn2)C(O)=O,5.66,19:0:5:10,carboxylic_acid:amine_primary:amine_secondary:amine_secondary,L-Histidyl-L-histidine,[H₃L]/[H₂L][H],0.1,25.0,19:0:5:10,carboxylic_acid:amine_primary:amine_secondary:amine_secondary,19(carboxylic_acid) > 0(amine_primary) > 5(amine_secondary) > 10(amine_secondary),carboxylic_acid,carboxylic_acid(1.5~5.0); amine_primary(9.0~11.0); amine_secondary(9.5~11.5); amine_secondary(9.5~11.5)
N[C@@H](Cc1c[nH]cn1)C(=O)N[C@@H](Cc2c[nH]cn2)C(O)=O,2.6,19:0:5:10,carboxylic_acid:amine_primary:amine_secondary:amine_secondary,L-Histidyl-L-histidine,[H₄L]/[H₃L][H],0.1,25.0,19:0:5:10,carboxylic_acid:amine_primary:amine_secondary:amine_secondary,19(carboxylic_acid) > 0(amine_primary) > 5(amine_secondary) > 10(amine_secondary),carboxylic_acid,carboxylic_acid(1.5~5.0); amine_primary(9.0~11.0); amine_secondary(9.5~11.5); amine_secondary(9.5~11.5)
N[C@H](Cc1c[nH]cn1)C(=O)N[C@@H](Cc2c[nH]cn2)C(O)=O,7.82,19:0:5:10,carboxylic_acid:amine_primary:amine_secondary:amine_secondary,D-Histidyl-L-histidine,[HL]/[L][H],0.1,25.0,19:0:5:10,carboxylic_acid:amine_primary:amine_secondary:amine_secondary,19(carboxylic_acid) > 0(amine_primary) > 5(amine_secondary) > 10(amine_secondary),amine_primary,carboxylic_acid(1.5~5.0); amine_primary(9.0~11.0); amine_secondary(9.5~11.5); amine_secondary(9.5~11.5)
N[C@H](Cc1c[nH]cn1)C(=O)N[C@@H](Cc2c[nH]cn2)C(O)=O,7.4,19:0:5:10,carboxylic_acid:amine_primary:amine_secondary:amine_secondary,D-Histidyl-L-histidine,[HL]/[L][H],0.15,37.0,19:0:5:10,carboxylic_acid:amine_primary:amine_secondary:amine_secondary,19(carboxylic_acid) > 0(amine_primary) > 5(amine_secondary) > 10(amine_secondary),amine_primary,carboxylic_acid(1.5~5.0); amine_primary(9.0~11.0); amine_secondary(9.5~11.5); amine_secondary(9.5~11.5)
N[C@H](Cc1c[nH]cn1)C(=O)N[C@@H](Cc2c[nH]cn2)C(O)=O,6.73,19:0:5:10,carboxylic_acid:amine_primary:amine_secondary:amine_secondary,D-Histidyl-L-histidine,[H₂L]/[HL][H],0.1,25.0,19:0:5:10,carboxylic_acid:amine_primary:amine_secondary:amine_secondary,19(carboxylic_acid) > 0(amine_primary) > 5(amine_secondary) > 10(amine_secondary),amine_primary,carboxylic_acid(1.5~5.0); amine_primary(9.0~11.0); amine_secondary(9.5~11.5); amine_secondary(9.5~11.5)
N[C@H](Cc1c[nH]cn1)C(=O)N[C@@H](Cc2c[nH]cn2)C(O)=O,6.43,19:0:5:10,carboxylic_acid:amine_primary:amine_secondary:amine_secondary,D-Histidyl-L-histidine,[H₂L]/[HL][H],0.15,37.0,19:0:5:10,carboxylic_acid:amine_primary:amine_secondary:amine_secondary,19(carboxylic_acid) > 0(amine_primary) > 5(amine_secondary) > 10(amine_secondary),carboxylic_acid,carboxylic_acid(1.5~5.0); amine_primary(9.0~11.0); amine_secondary(9.5~11.5); amine_secondary(9.5~11.5)
N[C@H](Cc1c[nH]cn1)C(=O)N[C@@H](Cc2c[nH]cn2)C(O)=O,5.32,19:0:5:10,carboxylic_acid:amine_primary:amine_secondary:amine_secondary,D-Histidyl-L-histidine,[H₃L]/[H₂L][H],0.1,25.0,19:0:5:10,carboxylic_acid:amine_primary:amine_secondary:amine_secondary,19(carboxylic_acid) > 0(amine_primary) > 5(amine_secondary) > 10(amine_secondary),carboxylic_acid,carboxylic_acid(1.5~5.0); amine_primary(9.0~11.0); amine_secondary(9.5~11.5); amine_secondary(9.5~11.5)
N[C@H](Cc1c[nH]cn1)C(=O)N[C@@H](Cc2c[nH]cn2)C(O)=O,5.03,19:0:5:10,carboxylic_acid:amine_primary:amine_secondary:amine_secondary,D-Histidyl-L-histidine,[H₃L]/[H₂L][H],0.15,37.0,19:0:5:10,carboxylic_acid:amine_primary:amine_secondary:amine_secondary,19(carboxylic_acid) > 0(amine_primary) > 5(amine_secondary) > 10(amine_secondary),carboxylic_acid,carboxylic_acid(1.5~5.0); amine_primary(9.0~11.0); amine_secondary(9.5~11.5); amine_secondary(9.5~11.5)
N[C@H](Cc1c[nH]cn1)C(=O)N[C@@H](Cc2c[nH]cn2)C(O)=O,2.18,19:0:5:10,carboxylic_acid:amine_primary:amine_secondary:amine_secondary,D-Histidyl-L-histidine,[H₄L]/[H₃L][H],0.1,25.0,19:0:5:10,carboxylic_acid:amine_primary:amine_secondary:amine_secondary,19(carboxylic_acid) > 0(amine_primary) > 5(amine_secondary) > 10(amine_secondary),carboxylic_acid,carboxylic_acid(1.5~5.0); amine_primary(9.0~11.0); amine_secondary(9.5~11.5); amine_secondary(9.5~11.5)
N[C@H](Cc1c[nH]cn1)C(=O)N[C@@H](Cc2c[nH]cn2)C(O)=O,2.11,19:0:5:10,carboxylic_acid:amine_primary:amine_secondary:amine_secondary,D-Histidyl-L-histidine,[H₄L]/[H₃L][H],0.15,37.0,19:0:5:10,carboxylic_acid:amine_primary:amine_secondary:amine_secondary,19(carboxylic_acid) > 0(amine_primary) > 5(amine_secondary) > 10(amine_secondary),carboxylic_acid,carboxylic_acid(1.5~5.0); amine_primary(9.0~11.0); amine_secondary(9.5~11.5); amine_secondary(9.5~11.5)
OC(=O)[C@H](Cc1c[nH]cn1)NC(=O)CS,8.7,0:7:10,carboxylic_acid:amine_secondary:amine_secondary,N-(Mercaptoacetyl)-L-histidine,[HL]/[L][H],0.1,20.0,0:7:10,carboxylic_acid:amine_secondary:amine_secondary,0(carboxylic_acid) > 7(amine_secondary) > 10(amine_secondary),amine_secondary,carboxylic_acid(1.5~5.0); amine_secondary(9.5~11.5); amine_secondary(9.5~11.5)
OC(=O)[C@H](Cc1c[nH]cn1)NC(=O)CS,7.14,0:7:10,carboxylic_acid:amine_secondary:amine_secondary,N-(Mercaptoacetyl)-L-histidine,[H₂L]/[HL][H],0.1,20.0,0:7:10,carboxylic_acid:amine_secondary:amine_secondary,0(carboxylic_acid) > 7(amine_secondary) > 10(amine_secondary),amine_secondary,carboxylic_acid(1.5~5.0); amine_secondary(9.5~11.5); amine_secondary(9.5~11.5)
OC(=O)[C@H](Cc1c[nH]cn1)NC(=O)CS,3.43,0:7:10,carboxylic_acid:amine_secondary:amine_secondary,N-(Mercaptoacetyl)-L-histidine,[H₃L]/[H₂L][H],0.1,20.0,0:7:10,carboxylic_acid:amine_secondary:amine_secondary,0(carboxylic_acid) > 7(amine_secondary) > 10(amine_secondary),carboxylic_acid,carboxylic_acid(1.5~5.0); amine_secondary(9.5~11.5); amine_secondary(9.5~11.5)
OC(=O)[C@H](Cc1c[nH]cn1)NC(=O)CCS,9.86,0:7:10,carboxylic_acid:amine_secondary:amine_secondary,N-(3-Mercaptopropionyl)-L-histidine,[HL]/[L][H],0.1,20.0,0:7:10,carboxylic_acid:amine_secondary:amine_secondary,0(carboxylic_acid) > 7(amine_secondary) > 10(amine_secondary),amine_secondary,carboxylic_acid(1.5~5.0); amine_secondary(9.5~11.5); amine_secondary(9.5~11.5)
OC(=O)[C@H](Cc1c[nH]cn1)NC(=O)CCS,7.25,0:7:10,carboxylic_acid:amine_secondary:amine_secondary,N-(3-Mercaptopropionyl)-L-histidine,[H₂L]/[HL][H],0.1,20.0,0:7:10,carboxylic_acid:amine_secondary:amine_secondary,0(carboxylic_acid) > 7(amine_secondary) > 10(amine_secondary),amine_secondary,carboxylic_acid(1.5~5.0); amine_secondary(9.5~11.5); amine_secondary(9.5~11.5)
OC(=O)[C@H](Cc1c[nH]cn1)NC(=O)CCS,3.48,0:7:10,carboxylic_acid:amine_secondary:amine_secondary,N-(3-Mercaptopropionyl)-L-histidine,[H₃L]/[H₂L][H],0.1,20.0,0:7:10,carboxylic_acid:amine_secondary:amine_secondary,0(carboxylic_acid) > 7(amine_secondary) > 10(amine_secondary),carboxylic_acid,carboxylic_acid(1.5~5.0); amine_secondary(9.5~11.5); amine_secondary(9.5~11.5)
CSCC[C@H](N)C(=O)N[C@@H](CCSC)C(O)=O,7.41,15:5,carboxylic_acid:amine_primary,L-Methionyl-L-methionine,[HL]/[L][H],0.1,25.0,15:5,carboxylic_acid:amine_primary,15(carboxylic_acid) > 5(amine_primary),amine_primary,carboxylic_acid(1.5~5.0); amine_primary(9.0~11.0)
CSCC[C@H](N)C(=O)N[C@@H](CCSC)C(O)=O,3.22,15:5,carboxylic_acid:amine_primary,L-Methionyl-L-methionine,[H₂L]/[HL][H],0.1,25.0,15:5,carboxylic_acid:amine_primary,15(carboxylic_acid) > 5(amine_primary),carboxylic_acid,carboxylic_acid(1.5~5.0); amine_primary(9.0~11.0)
CSCC[C@H](N)C(=O)N[C@H](CCSC)C(O)=O,7.59,15:5,carboxylic_acid:amine_primary,L-Methionyl-D-methionine,[HL]/[L][H],0.1,25.0,15:5,carboxylic_acid:amine_primary,15(carboxylic_acid) > 5(amine_primary),amine_primary,carboxylic_acid(1.5~5.0); amine_primary(9.0~11.0)
CSCC[C@H](N)C(=O)N[C@H](CCSC)C(O)=O,2.98,15:5,carboxylic_acid:amine_primary,L-Methionyl-D-methionine,[H₂L]/[HL][H],0.1,25.0,15:5,carboxylic_acid:amine_primary,15(carboxylic_acid) > 5(amine_primary),carboxylic_acid,carboxylic_acid(1.5~5.0); amine_primary(9.0~11.0)
CSCC[C@H](N)C(=O)N[C@@H](Cc1c[nH]cn1)C(O)=O,7.59,17:5:8,carboxylic_acid:amine_primary:amine_secondary,L-Methionyl-L-histidine,[HL]/[L][H],0.1,25.0,17:5:8,carboxylic_acid:amine_primary:amine_secondary,17(carboxylic_acid) > 5(amine_primary) > 8(amine_secondary),amine_primary,carboxylic_acid(1.5~5.0); amine_primary(9.0~11.0); amine_secondary(9.5~11.5)
CSCC[C@H](N)C(=O)N[C@@H](Cc1c[nH]cn1)C(O)=O,6.57,17:5:8,carboxylic_acid:amine_primary:amine_secondary,L-Methionyl-L-histidine,[H₂L]/[HL][H],0.1,25.0,17:5:8,carboxylic_acid:amine_primary:amine_secondary,17(carboxylic_acid) > 5(amine_primary) > 8(amine_secondary),carboxylic_acid,carboxylic_acid(1.5~5.0); amine_primary(9.0~11.0); amine_secondary(9.5~11.5)
CSCC[C@H](N)C(=O)N[C@@H](Cc1c[nH]cn1)C(O)=O,2.96,17:5:8,carboxylic_acid:amine_primary:amine_secondary,L-Methionyl-L-histidine,[H₃L]/[H₂L][H],0.1,25.0,17:5:8,carboxylic_acid:amine_primary:amine_secondary,17(carboxylic_acid) > 5(amine_primary) > 8(amine_secondary),carboxylic_acid,carboxylic_acid(1.5~5.0); amine_primary(9.0~11.0); amine_secondary(9.5~11.5)
CSCC[C@H](NC(=O)[C@@H](N)Cc1c[nH]cn1)C(O)=O,7.5,17:9:5,carboxylic_acid:amine_primary:amine_secondary,L-Histidyl-L-methionine,[HL]/[L][H],0.1,25.0,17:9:5,carboxylic_acid:amine_primary:amine_secondary,17(carboxylic_acid) > 9(amine_primary) > 5(amine_secondary),amine_primary,carboxylic_acid(1.5~5.0); amine_primary(9.0~11.0); amine_secondary(9.5~11.5)
CSCC[C@H](NC(=O)[C@@H](N)Cc1c[nH]cn1)C(O)=O,6.0,17:9:5,carboxylic_acid:amine_primary:amine_secondary,L-Histidyl-L-methionine,[H₂L]/[HL][H],0.1,25.0,17:9:5,carboxylic_acid:amine_primary:amine_secondary,17(carboxylic_acid) > 9(amine_primary) > 5(amine_secondary),carboxylic_acid,carboxylic_acid(1.5~5.0); amine_primary(9.0~11.0); amine_secondary(9.5~11.5)
CSCC[C@H](NC(=O)[C@@H](N)Cc1c[nH]cn1)C(O)=O,2.58,17:9:5,carboxylic_acid:amine_primary:amine_secondary,L-Histidyl-L-methionine,[H₃L]/[H₂L][H],0.1,25.0,17:9:5,carboxylic_acid:amine_primary:amine_secondary,17(carboxylic_acid) > 9(amine_primary) > 5(amine_secondary),carboxylic_acid,carboxylic_acid(1.5~5.0); amine_primary(9.0~11.0); amine_secondary(9.5~11.5)
NCC(=O)NCC(=O)NCC(O)=O,7.89,11:0,carboxylic_acid:amine_primary,Glycylglycylglycine (Triglycine),[HL]/[L][H],0.1,25.0,11:0,carboxylic_acid:amine_primary,11(carboxylic_acid) > 0(amine_primary),amine_primary,carboxylic_acid(1.5~5.0); amine_primary(9.0~11.0)
NCC(=O)NCC(=O)NCC(O)=O,7.58,11:0,carboxylic_acid:amine_primary,Glycylglycylglycine (Triglycine),[HL]/[L][H],0.15,37.0,11:0,carboxylic_acid:amine_primary,11(carboxylic_acid) > 0(amine_primary),amine_primary,carboxylic_acid(1.5~5.0); amine_primary(9.0~11.0)
NCC(=O)NCC(=O)NCC(O)=O,7.99,11:0,carboxylic_acid:amine_primary,Glycylglycylglycine (Triglycine),[HL]/[L][H],1.0,25.0,11:0,carboxylic_acid:amine_primary,11(carboxylic_acid) > 0(amine_primary),amine_primary,carboxylic_acid(1.5~5.0); amine_primary(9.0~11.0)
NCC(=O)NCC(=O)NCC(O)=O,8.27,11:0,carboxylic_acid:amine_primary,Glycylglycylglycine (Triglycine),[HL]/[L][H],2.0,25.0,11:0,carboxylic_acid:amine_primary,11(carboxylic_acid) > 0(amine_primary),amine_primary,carboxylic_acid(1.5~5.0); amine_primary(9.0~11.0)
NCC(=O)NCC(=O)NCC(O)=O,8.3,11:0,carboxylic_acid:amine_primary,Glycylglycylglycine (Triglycine),[HL]/[L][H],2.0,25.0,11:0,carboxylic_acid:amine_primary,11(carboxylic_acid) > 0(amine_primary),amine_primary,carboxylic_acid(1.5~5.0); amine_primary(9.0~11.0)
NCC(=O)NCC(=O)NCC(O)=O,8.57,11:0,carboxylic_acid:amine_primary,Glycylglycylglycine (Triglycine),[HL]/[L][H],3.0,25.0,11:0,carboxylic_acid:amine_primary,11(carboxylic_acid) > 0(amine_primary),amine_primary,carboxylic_acid(1.5~5.0); amine_primary(9.0~11.0)
NCC(=O)NCC(=O)NCC(O)=O,8.34,11:0,carboxylic_acid:amine_primary,Glycylglycylglycine (Triglycine),[HL]/[L][H],0.0,15.0,11:0,carboxylic_acid:amine_primary,11(carboxylic_acid) > 0(amine_primary),amine_primary,carboxylic_acid(1.5~5.0); amine_primary(9.0~11.0)
NCC(=O)NCC(=O)NCC(O)=O,8.088,11:0,carboxylic_acid:amine_primary,Glycylglycylglycine (Triglycine),[HL]/[L][H],0.0,25.0,11:0,carboxylic_acid:amine_primary,11(carboxylic_acid) > 0(amine_primary),amine_primary,carboxylic_acid(1.5~5.0); amine_primary(9.0~11.0)
NCC(=O)NCC(=O)NCC(O)=O,7.83,11:0,carboxylic_acid:amine_primary,Glycylglycylglycine (Triglycine),[HL]/[L][H],0.0,35.0,11:0,carboxylic_acid:amine_primary,11(carboxylic_acid) > 0(amine_primary),amine_primary,carboxylic_acid(1.5~5.0); amine_primary(9.0~11.0)
NCC(=O)NCC(=O)NCC(O)=O,3.21,11:0,carboxylic_acid:amine_primary,Glycylglycylglycine (Triglycine),[H₂L]/[HL][H],0.1,25.0,11:0,carboxylic_acid:amine_primary,11(carboxylic_acid) > 0(amine_primary),carboxylic_acid,carboxylic_acid(1.5~5.0); amine_primary(9.0~11.0)
NCC(=O)NCC(=O)NCC(O)=O,3.19,11:0,carboxylic_acid:amine_primary,Glycylglycylglycine (Triglycine),[H₂L]/[HL][H],0.15,37.0,11:0,carboxylic_acid:amine_primary,11(carboxylic_acid) > 0(amine_primary),carboxylic_acid,carboxylic_acid(1.5~5.0); amine_primary(9.0~11.0)
NCC(=O)NCC(=O)NCC(O)=O,3.2,11:0,carboxylic_acid:amine_primary,Glycylglycylglycine (Triglycine),[H₂L]/[HL][H],1.0,25.0,11:0,carboxylic_acid:amine_primary,11(carboxylic_acid) > 0(amine_primary),carboxylic_acid,carboxylic_acid(1.5~5.0); amine_primary(9.0~11.0)
NCC(=O)NCC(=O)NCC(O)=O,3.42,11:0,carboxylic_acid:amine_primary,Glycylglycylglycine (Triglycine),[H₂L]/[HL][H],2.0,25.0,11:0,carboxylic_acid:amine_primary,11(carboxylic_acid) > 0(amine_primary),carboxylic_acid,carboxylic_acid(1.5~5.0); amine_primary(9.0~11.0)
NCC(=O)NCC(=O)NCC(O)=O,3.39,11:0,carboxylic_acid:amine_primary,Glycylglycylglycine (Triglycine),[H₂L]/[HL][H],2.0,25.0,11:0,carboxylic_acid:amine_primary,11(carboxylic_acid) > 0(amine_primary),carboxylic_acid,carboxylic_acid(1.5~5.0); amine_primary(9.0~11.0)
NCC(=O)NCC(=O)NCC(O)=O,3.6,11:0,carboxylic_acid:amine_primary,Glycylglycylglycine (Triglycine),[H₂L]/[HL][H],3.0,25.0,11:0,carboxylic_acid:amine_primary,11(carboxylic_acid) > 0(amine_primary),carboxylic_acid,carboxylic_acid(1.5~5.0); amine_primary(9.0~11.0)
NCC(=O)NCC(=O)NCC(O)=O,3.236,11:0,carboxylic_acid:amine_primary,Glycylglycylglycine (Triglycine),[H₂L]/[HL][H],0.0,15.0,11:0,carboxylic_acid:amine_primary,11(carboxylic_acid) > 0(amine_primary),carboxylic_acid,carboxylic_acid(1.5~5.0); amine_primary(9.0~11.0)
NCC(=O)NCC(=O)NCC(O)=O,3.224,11:0,carboxylic_acid:amine_primary,Glycylglycylglycine (Triglycine),[H₂L]/[HL][H],0.0,25.0,11:0,carboxylic_acid:amine_primary,11(carboxylic_acid) > 0(amine_primary),carboxylic_acid,carboxylic_acid(1.5~5.0); amine_primary(9.0~11.0)
NCC(=O)NCC(=O)NCC(O)=O,3.202,11:0,carboxylic_acid:amine_primary,Glycylglycylglycine (Triglycine),[H₂L]/[HL][H],0.0,35.0,11:0,carboxylic_acid:amine_primary,11(carboxylic_acid) > 0(amine_primary),carboxylic_acid,carboxylic_acid(1.5~5.0); amine_primary(9.0~11.0)
NCC(=O)NCC(=O)NCCC(O)=O,7.89,12:0,carboxylic_acid:amine_primary,Glycylglycyl-beta-alanine,[HL]/[L][H],0.1,25.0,12:0,carboxylic_acid:amine_primary,12(carboxylic_acid) > 0(amine_primary),amine_primary,carboxylic_acid(1.5~5.0); amine_primary(9.0~11.0)
NCC(=O)NCC(=O)NCCC(O)=O,4.04,12:0,carboxylic_acid:amine_primary,Glycylglycyl-beta-alanine,[H₂L]/[HL][H],0.1,25.0,12:0,carboxylic_acid:amine_primary,12(carboxylic_acid) > 0(amine_primary),carboxylic_acid,carboxylic_acid(1.5~5.0); amine_primary(9.0~11.0)
NCC(=O)NCCC(=O)NCC(O)=O,8.05,12:0,carboxylic_acid:amine_primary,Glycyl-beta-alanylglycine,[HL]/[L][H],0.1,25.0,12:0,carboxylic_acid:amine_primary,12(carboxylic_acid) > 0(amine_primary),amine_primary,carboxylic_acid(1.5~5.0); amine_primary(9.0~11.0)
NCC(=O)NCCC(=O)NCC(O)=O,3.3,12:0,carboxylic_acid:amine_primary,Glycyl-beta-alanylglycine,[H₂L]/[HL][H],0.1,25.0,12:0,carboxylic_acid:amine_primary,12(carboxylic_acid) > 0(amine_primary),carboxylic_acid,carboxylic_acid(1.5~5.0); amine_primary(9.0~11.0)
NCCC(=O)NCC(=O)NCC(O)=O,9.25,12:0,carboxylic_acid:amine_primary,beta-Alanylglycylglycine,[HL]/[L][H],0.1,25.0,12:0,carboxylic_acid:amine_primary,12(carboxylic_acid) > 0(amine_primary),amine_primary,carboxylic_acid(1.5~5.0); amine_primary(9.0~11.0)
NCCC(=O)NCC(=O)NCC(O)=O,3.19,12:0,carboxylic_acid:amine_primary,beta-Alanylglycylglycine,[H₂L]/[HL][H],0.1,25.0,12:0,carboxylic_acid:amine_primary,12(carboxylic_acid) > 0(amine_primary),carboxylic_acid,carboxylic_acid(1.5~5.0); amine_primary(9.0~11.0)
C[C@H](NC(=O)CNC(=O)CN)C(O)=O,7.9,12:10,carboxylic_acid:amine_primary,Glycylglycyl-L-alanine,[HL]/[L][H],0.1,25.0,12:10,carboxylic_acid:amine_primary,12(carboxylic_acid) > 10(amine_primary),amine_primary,carboxylic_acid(1.5~5.0); amine_primary(9.0~11.0)
C[C@H](NC(=O)CNC(=O)CN)C(O)=O,3.18,12:10,carboxylic_acid:amine_primary,Glycylglycyl-L-alanine,[H₂L]/[HL][H],0.1,25.0,12:10,carboxylic_acid:amine_primary,12(carboxylic_acid) > 10(amine_primary),carboxylic_acid,carboxylic_acid(1.5~5.0); amine_primary(9.0~11.0)
C[C@H](NC(=O)CN)C(=O)NCC(O)=O,7.96,12:6,carboxylic_acid:amine_primary,Glycyl-L-alanylglycine,[HL]/[L][H],0.1,25.0,12:6,carboxylic_acid:amine_primary,12(carboxylic_acid) > 6(amine_primary),amine_primary,carboxylic_acid(1.5~5.0); amine_primary(9.0~11.0)
C[C@H](NC(=O)CN)C(=O)NCC(O)=O,3.34,12:6,carboxylic_acid:amine_primary,Glycyl-L-alanylglycine,[H₂L]/[HL][H],0.1,25.0,12:6,carboxylic_acid:amine_primary,12(carboxylic_acid) > 6(amine_primary),carboxylic_acid,carboxylic_acid(1.5~5.0); amine_primary(9.0~11.0)